----- GAMESS execution script 'rungms' -----
This job is running on host chemcompute-node-0.novalocal
under operating system Linux at Thu Apr 30 07:25:45 UTC 2026
SLURM has assigned the following compute nodes to this run:
Available scratch disk space (Kbyte units) at beginning of the job is
Filesystem     1K-blocks     Used Available Use% Mounted on
/dev/sda4       61775852 12550928  49224924  21% /
GAMESS temporary binary files will be written to /scratch/1118336
GAMESS supplementary output files will be written to /data/slurm/159/1594898
Copying input file 1594898.inp to your run's scratch directory...
The generated host list is
chemcompute-node-0.novalocal
chemcompute.org
{'UTCtimestamp': '2026-04-30T07:25:45.701255', 'cluster': 'jetstream2', 'clusterJobNumber': '1118336', 'status': 'RUNNING', 'nodeList': 'chemcompute-node-0'}

 Distributed Data Interface kickoff program.
 Initiating 1 compute processes on 1 nodes to run the following command:
 /data/gamess-2019R1-avx2-ddi/gamess.00.x 1594898 

          ******************************************************
          *         GAMESS VERSION = 30 JUN 2019 (R1)          *
          *             FROM IOWA STATE UNIVERSITY             *
          * M.W.SCHMIDT, K.K.BALDRIDGE, J.A.BOATZ, S.T.ELBERT, *
          *   M.S.GORDON, J.H.JENSEN, S.KOSEKI, N.MATSUNAGA,   *
          *          K.A.NGUYEN, S.J.SU, T.L.WINDUS,           *
          *       TOGETHER WITH M.DUPUIS, J.A.MONTGOMERY       *
          *         J.COMPUT.CHEM.  14, 1347-1363(1993)        *
          **************** 64 BIT INTEL VERSION ****************

  SINCE 1993, STUDENTS AND POSTDOCS WORKING AT IOWA STATE UNIVERSITY
  AND ALSO IN THEIR VARIOUS JOBS AFTER LEAVING ISU HAVE MADE IMPORTANT
  CONTRIBUTIONS TO THE CODE:
     IVANA ADAMOVIC, CHRISTINE AIKENS, YURI ALEXEEV, POOJA ARORA,
     ANDREY ASADCHEV, ROB BELL, PRADIPTA BANDYOPADHYAY, JONATHAN BENTZ,
     COLLEEN BERTONI, BRETT BODE, KURT BRORSEN, CALEB CARLIN, GALINA CHABAN,
     WEI CHEN, CHEOL HO CHOI, PAUL DAY, ALBERT DEFUSCO, NUWAN DESILVA,
     TIM DUDLEY, DMITRI FEDOROV, ALEX FINDLATER, GRAHAM FLETCHER, 
     MARK FREITAG, KURT GLAESEMANN, ANASTASIA GUNINA,
     DAN KEMP, GRANT MERRILL, NORIYUKI MINEZAWA, JONATHAN MULLIN,
     TAKESHI NAGATA, SEAN NEDD, HEATHER NETZLOFF, BOSILJKA NJEGIC, RYAN OLSON,
     MIKE PAK, BUU PHAM,
     SPENCER PRUITT, LUKE ROSKOP, JIM SHOEMAKER, LYUDMILA SLIPCHENKO,
     TONY SMITH, SAROM SOK LEANG, JIE SONG, TETSUYA TAKETSUGU, SIMON WEBB,
     PENG XU, SOOHAENG YOO, FEDERICO ZAHARIEV

  ADDITIONAL CODE HAS BEEN PROVIDED BY COLLABORATORS IN OTHER GROUPS:
     IOWA STATE UNIVERSITY:
          JOE IVANIC, AARON WEST, LAIMUTIS BYTAUTAS, KLAUS RUEDENBERG
     UNIVERSITY OF TOKYO: KIMIHIKO HIRAO, TAKAHITO NAKAJIMA,
          TAKAO TSUNEDA, MUNEAKI KAMIYA, SUSUMU YANAGISAWA,
          KIYOSHI YAGI, MAHITO CHIBA, SEIKEN TOKURA, NAOAKI KAWAKAMI
     UNIVERSITY OF AARHUS: FRANK JENSEN
     UNIVERSITY OF IOWA: VISVALDAS KAIRYS, HUI LI
     NATIONAL INST. OF STANDARDS AND TECHNOLOGY: WALT STEVENS, DAVID GARMER
     UNIVERSITY OF PISA: BENEDETTA MENNUCCI, JACOPO TOMASI
     UNIVERSITY OF MEMPHIS: HENRY KURTZ, PRAKASHAN KORAMBATH
     UNIVERSITY OF ALBERTA: TOBY ZENG, MARIUSZ KLOBUKOWSKI
     UNIVERSITY OF NEW ENGLAND: MARK SPACKMAN
     MIE UNIVERSITY: HIROAKI UMEDA
     NAT. INST. OF ADVANCED INDUSTRIAL SCIENCE AND TECHNOLOGY: KAZUO KITAURA
     MICHIGAN STATE UNIVERSITY:
          KAROL KOWALSKI, MARTA WLOCH, JEFFREY GOUR, JESSE LUTZ,
          WEI LI, JUN SHEN, J. EMILIANO DEUSTUA, PIOTR PIECUCH
     UNIVERSITY OF MINNESOTA:
          YINAN SHU
     UNIVERSITY OF SILESIA: MONIKA MUSIAL, STANISLAW KUCHARSKI
     FACULTES UNIVERSITAIRES NOTRE-DAME DE LA PAIX:
          OLIVIER QUINET, BENOIT CHAMPAGNE
     UNIVERSITY OF CALIFORNIA - SANTA BARBARA: BERNARD KIRTMAN
     INSTITUTE FOR MOLECULAR SCIENCE:
          KAZUYA ISHIMURA, MICHIO KATOUDA, AND SHIGERU NAGASE
     UNIVERSITY OF NOTRE DAME: ANNA POMOGAEVA, DAN CHIPMAN
     KYUSHU UNIVERSITY:
          HARUYUKI NAKANO,
          FENG LONG GU, JACEK KORCHOWIEC, MARCIN MAKOWSKI, AND YURIKO AOKI,
          HIROTOSHI MORI AND EISAKU MIYOSHI
     PENNSYLVANIA STATE UNIVERSITY:
          TZVETELIN IORDANOV, CHET SWALINA, JONATHAN SKONE,
          SHARON HAMMES-SCHIFFER
     WASEDA UNIVERSITY:
          MASATO KOBAYASHI, TOMOKO AKAMA, TSUGUKI TOUMA,
          TAKESHI YOSHIKAWA, YASUHIRO IKABATA, JUNJI SEINO,
          YUYA NAKAJIMA, HIROMI NAKAI
     NANJING UNIVERSITY: SHUHUA LI
     UNIVERSITY OF NEBRASKA:
          PEIFENG SU, DEJUN SI, NANDUN THELLAMUREGE, YALI WANG, HUI LI
     UNIVERSITY OF ZURICH: ROBERTO PEVERATI, KIM BALDRIDGE
     N. COPERNICUS UNIVERSITY AND JACKSON STATE UNIVERSITY:
          MARIA BARYSZ
     UNIVERSITY OF COPENHAGEN: Jimmy Kromann, CASPER STEINMANN
     TOKYO INSTITUTE OF TECHNOLOGY: HIROYA NAKATA
     NAGOYA UNIVERSITY: YOSHIO NISHIMOTO, STEPHAN IRLE
     MOSCOW STATE UNIVERSITY: VLADIMIR MIRONOV
     A.N.NESMEYANOV INSTITUTE OF ORGANOELEMENT COMPOUNDS OF RUSSIAN ACADEMY OF SCIENCES:
          IGOR S. GERASIMOV

 EXECUTION OF GAMESS BEGUN Thu Apr 30 07:25:45 2026

            ECHO OF THE FIRST FEW INPUT CARDS -
 INPUT CARD>!                                                                               
 INPUT CARD>!   GAMESS Calculation input file                                               
 INPUT CARD>!                                                                               
 INPUT CARD>!                                                                               
 INPUT CARD> $CONTRL SCFTYP=RHF MAXIT=200 RUNTYP=OPTIMIZE                                   
 INPUT CARD>         COORD=UNIQUE MULT=1                                                    
 INPUT CARD>         ICHARG=0                                                               
 INPUT CARD>         DFTTYP=B3LYP                                                           
 INPUT CARD>         MOLPLT=.FALSE. PLTORB=.FALSE.  $END                                    
 INPUT CARD> $SYSTEM TIMLIM=2879 MWORDS=250  $END                                           
 INPUT CARD>                                                                                
 INPUT CARD> $STATPT OPTTOL=0.0005 NSTEP=999 $END                                           
 INPUT CARD> $STATPT IHREP=0  $END                                                          
 INPUT CARD>                                                                                
 INPUT CARD> $DFT    METHOD=GRID  NLEB=590  $END                                            
 INPUT CARD>                                                                                
 INPUT CARD> $BASIS  GBASIS=N31 NGAUSS=6                                                    
 INPUT CARD>         NDFUNC=1   NPFUNC=0  $END                                              
 INPUT CARD>                                                                                
 INPUT CARD> $SCF    DIRSCF=.T. $END                                                        
 INPUT CARD> $GUESS  GUESS=HUCKEL  $END                                                     
 INPUT CARD>                                                                                
 INPUT CARD> $DATA                                                                          
 INPUT CARD>                                                                                
 INPUT CARD>  C1                                                                            
 INPUT CARD>O     8.0    -1.31970    -1.22090     0.03680                                   
 INPUT CARD>O     8.0     1.31890    -1.22080    -0.03830                                   
 INPUT CARD>C     6.0     0.00000     0.80330     0.01720                                   
 INPUT CARD>C     6.0    -1.28880     0.00790    -0.00280                                   
 INPUT CARD>C     6.0     1.28900     0.00770     0.00650                                   
 INPUT CARD>C     6.0    -2.56350     0.81170    -0.02670                                   
 INPUT CARD>C     6.0     2.56410     0.81120     0.00730                                   
 INPUT CARD>H     1.0    -0.00390     1.41940     0.92250                                   
 INPUT CARD>H     1.0     0.00410     1.45090    -0.86600                                   
 INPUT CARD>H     1.0    -2.63700     1.40860     0.88560                                   
 INPUT CARD>H     1.0    -2.57060     1.46190    -0.90500                                   
 INPUT CARD>H     1.0    -3.42350     0.13850    -0.08200                                   
 INPUT CARD>H     1.0     3.42480     0.13780     0.04880                                   
 INPUT CARD>H     1.0     2.62200     1.40700    -0.90680                                   
 INPUT CARD>H     1.0     2.58630     1.46250     0.88460                                   
 INPUT CARD> $END                                                                           
 INPUT CARD>                                                                                
 INPUT CARD>                                                                                
 INPUT CARD>! Customizations after this line are persisted when using Do More Calculations  
  250000000 WORDS OF MEMORY AVAILABLE

     BASIS OPTIONS
     -------------
     GBASIS=N31          IGAUSS=       6      POLAR=POPN31  
     NDFUNC=       1     NFFUNC=       0     DIFFSP=       F
     NPFUNC=       0      DIFFS=       F     BASNAM=        


     RUN TITLE
     ---------
                                                                                 

 THE POINT GROUP OF THE MOLECULE IS C1      
 THE ORDER OF THE PRINCIPAL AXIS IS     0

 ATOM      ATOMIC                      COORDINATES (BOHR)
           CHARGE         X                   Y                   Z
 O           8.0    -2.4938713860       -2.3071664584        0.0695419163
 O           8.0     2.4923596052       -2.3069774858       -0.0723765053
 C           6.0     0.0000000000        1.5180168859        0.0325032870
 C           6.0    -2.4354788530        0.0149288353       -0.0052912328
 C           6.0     2.4358567982        0.0145508901        0.0122832189
 C           6.0    -4.8443125695        1.5338905842       -0.0504556839
 C           6.0     4.8454464051        1.5329457212        0.0137949997
 H           1.0    -0.0073699314        2.6822770670        1.7432722237
 H           1.0     0.0077478765        2.7418034356       -1.6365027054
 H           1.0    -4.9832074296        2.6618680263        1.6735413347
 H           1.0    -4.8577296240        2.7625904215       -1.7102020189
 H           1.0    -6.4694769190        0.2617270493       -0.1549575310
 H           1.0     6.4719335627        0.2604042411        0.0922186282
 H           1.0     4.9548615398        2.6588444647       -1.7136035257
 H           1.0     4.8873983220        2.7637242570        1.6716516087

          INTERNUCLEAR DISTANCES (ANGS.)
          ------------------------------

                1 O          2 O          3 C          4 C          5 C     

   1 O       0.0000000    2.6396685 *  2.4164805 *  1.2298262 *  2.8836941 *
   2 O       2.6396685 *  0.0000000    2.4165178 *  2.8828915 *  1.2296802 *
   3 C       2.4164805 *  2.4165178 *  0.0000000    1.5146176 *  1.5147986 *
   4 C       1.2298262 *  2.8828915 *  1.5146176 *  0.0000000    2.5778168 *
   5 C       2.8836941 *  1.2296802 *  1.5147986 *  2.5778168 *  0.0000000  
   6 C       2.3838065 *  4.3822620    2.5638896 *  1.5071582 *  3.9356416  
   7 C       4.3834009    2.3836162 *  2.5641313 *  3.9357631    1.5071473 *
   8 H       3.0800939    3.1054134    1.0950628 *  2.1211979 *  2.1221553 *
   9 H       3.1154469    3.0905933    1.0951917 *  2.1210737 *  2.1201534 *
  10 H       3.0610474    4.8390578    2.8415270 *  2.1374888 *  4.2601424  
  11 H       3.1063087    4.8037754    2.8093044 *  2.1380112 *  4.2239841  
  12 H       2.5075997 *  4.9335549    3.4888611    2.1401573 *  4.7151455  
  13 H       4.9352295    2.5076274 *  3.4890033    4.7156719    2.1401768 *
  14 H       4.8304491    3.0590349    2.8448398 *  4.2507709    2.1375328 *
  15 H       4.8141704    3.1077558    2.8063990 *  4.2331714    2.1378704 *

                6 C          7 C          8 H          9 H         10 H     

   1 O       2.3838065 *  4.3834009    3.0800939    3.1154469    3.0610474  
   2 O       4.3822620    2.3836162 *  3.1054134    3.0905933    4.8390578  
   3 C       2.5638896 *  2.5641313 *  1.0950628 *  1.0951917 *  2.8415270 *
   4 C       1.5071582 *  3.9357631    2.1211979 *  2.1210737 *  2.1374888 *
   5 C       3.9356416    1.5071473 *  2.1221553 *  2.1201534 *  4.2601424  
   6 C       0.0000000    5.1277127    2.7967538 *  2.7758910 *  1.0926954 *
   7 C       5.1277127    0.0000000    2.7932279 *  2.7794728 *  5.3084592  
   8 H       2.7967538 *  2.7932279 *  0.0000000    1.7887953 *  2.6333807 *
   9 H       2.7758910 *  2.7794728 *  1.7887953 *  0.0000000    3.1694323  
  10 H       1.0926954 *  5.3084592    2.6333807 *  3.1694323    0.0000000  
  11 H       1.0928043 *  5.2555538    3.1511127    2.5750189 *  1.7926233 *
  12 H       1.0935522 *  6.0259318    3.7872667    3.7530643    1.7798837 *
  13 H       6.0265727    1.0936152 *  3.7632212    3.7765433    6.2498469  
  14 H       5.2932380    1.0926614 *  3.2002880    2.6185859 *  5.5560581  
  15 H       5.2701469    1.0928586 *  2.5908358 *  3.1196942    5.2235782  

               11 H         12 H         13 H         14 H         15 H     

   1 O       3.1063087    2.5075997 *  4.9352295    4.8304491    4.8141704  
   2 O       4.8037754    4.9335549    2.5076274 *  3.0590349    3.1077558  
   3 C       2.8093044 *  3.4888611    3.4890033    2.8448398 *  2.8063990 *
   4 C       2.1380112 *  2.1401573 *  4.7156719    4.2507709    4.2331714  
   5 C       4.2239841    4.7151455    2.1401768 *  2.1375328 *  2.1378704 *
   6 C       1.0928043 *  1.0935522 *  6.0265727    5.2932380    5.2701469  
   7 C       5.2555538    6.0259318    1.0936152 *  1.0926614 *  1.0928586 *
   8 H       3.1511127    3.7872667    3.7632212    3.2002880    2.5908358 *
   9 H       2.5750189 *  3.7530643    3.7765433    2.6185859 *  3.1196942  
  10 H       1.7926233 *  1.7798837 *  6.2498469    5.5560581    5.2235782  
  11 H       0.0000000    1.7765571 *  6.2135172    5.1928905    5.4585975  
  12 H       1.7765571 *  0.0000000    6.8495490    6.2319706    6.2293649  
  13 H       6.2135172    6.8495490    0.0000000    1.7800359 *  1.7766468 *
  14 H       5.1928905    6.2319706    1.7800359 *  0.0000000    1.7926150 *
  15 H       5.4585975    6.2293649    1.7766468 *  1.7926150 *  0.0000000  

  * ... LESS THAN  3.000


     ATOMIC BASIS SET
     ----------------
 THE CONTRACTED PRIMITIVE FUNCTIONS HAVE BEEN UNNORMALIZED
 THE CONTRACTED BASIS FUNCTIONS ARE NOW NORMALIZED TO UNITY

  SHELL TYPE  PRIMITIVE        EXPONENT          CONTRACTION COEFFICIENT(S)

 O         

      1   S       1          5484.6716600    0.001831074430
      1   S       2           825.2349460    0.013950172200
      1   S       3           188.0469580    0.068445078098
      1   S       4            52.9645000    0.232714335992
      1   S       5            16.8975704    0.470192897984
      1   S       6             5.7996353    0.358520852987

      2   L       7            15.5396162   -0.110777549525    0.070874268231
      2   L       8             3.5999336   -0.148026262701    0.339752839147
      2   L       9             1.0137618    1.130767015354    0.727158577316

      3   L      10             0.2700058    1.000000000000    1.000000000000

      4   D      11             0.8000000    1.000000000000

 O         

      5   S      12          5484.6716600    0.001831074430
      5   S      13           825.2349460    0.013950172200
      5   S      14           188.0469580    0.068445078098
      5   S      15            52.9645000    0.232714335992
      5   S      16            16.8975704    0.470192897984
      5   S      17             5.7996353    0.358520852987

      6   L      18            15.5396162   -0.110777549525    0.070874268231
      6   L      19             3.5999336   -0.148026262701    0.339752839147
      6   L      20             1.0137618    1.130767015354    0.727158577316

      7   L      21             0.2700058    1.000000000000    1.000000000000

      8   D      22             0.8000000    1.000000000000

 C         

      9   S      23          3047.5248800    0.001834737132
      9   S      24           457.3695180    0.014037322813
      9   S      25           103.9486850    0.068842622264
      9   S      26            29.2101553    0.232184443216
      9   S      27             9.2866630    0.467941348435
      9   S      28             3.1639270    0.362311985337

     10   L      29             7.8682723   -0.119332419775    0.068999066591
     10   L      30             1.8812885   -0.160854151696    0.316423960957
     10   L      31             0.5442493    1.143456437840    0.744308290898

     11   L      32             0.1687145    1.000000000000    1.000000000000

     12   D      33             0.8000000    1.000000000000

 C         

     13   S      34          3047.5248800    0.001834737132
     13   S      35           457.3695180    0.014037322813
     13   S      36           103.9486850    0.068842622264
     13   S      37            29.2101553    0.232184443216
     13   S      38             9.2866630    0.467941348435
     13   S      39             3.1639270    0.362311985337

     14   L      40             7.8682723   -0.119332419775    0.068999066591
     14   L      41             1.8812885   -0.160854151696    0.316423960957
     14   L      42             0.5442493    1.143456437840    0.744308290898

     15   L      43             0.1687145    1.000000000000    1.000000000000

     16   D      44             0.8000000    1.000000000000

 C         

     17   S      45          3047.5248800    0.001834737132
     17   S      46           457.3695180    0.014037322813
     17   S      47           103.9486850    0.068842622264
     17   S      48            29.2101553    0.232184443216
     17   S      49             9.2866630    0.467941348435
     17   S      50             3.1639270    0.362311985337

     18   L      51             7.8682723   -0.119332419775    0.068999066591
     18   L      52             1.8812885   -0.160854151696    0.316423960957
     18   L      53             0.5442493    1.143456437840    0.744308290898

     19   L      54             0.1687145    1.000000000000    1.000000000000

     20   D      55             0.8000000    1.000000000000

 C         

     21   S      56          3047.5248800    0.001834737132
     21   S      57           457.3695180    0.014037322813
     21   S      58           103.9486850    0.068842622264
     21   S      59            29.2101553    0.232184443216
     21   S      60             9.2866630    0.467941348435
     21   S      61             3.1639270    0.362311985337

     22   L      62             7.8682723   -0.119332419775    0.068999066591
     22   L      63             1.8812885   -0.160854151696    0.316423960957
     22   L      64             0.5442493    1.143456437840    0.744308290898

     23   L      65             0.1687145    1.000000000000    1.000000000000

     24   D      66             0.8000000    1.000000000000

 C         

     25   S      67          3047.5248800    0.001834737132
     25   S      68           457.3695180    0.014037322813
     25   S      69           103.9486850    0.068842622264
     25   S      70            29.2101553    0.232184443216
     25   S      71             9.2866630    0.467941348435
     25   S      72             3.1639270    0.362311985337

     26   L      73             7.8682723   -0.119332419775    0.068999066591
     26   L      74             1.8812885   -0.160854151696    0.316423960957
     26   L      75             0.5442493    1.143456437840    0.744308290898

     27   L      76             0.1687145    1.000000000000    1.000000000000

     28   D      77             0.8000000    1.000000000000

 H         

     29   S      78            18.7311370    0.033494604338
     29   S      79             2.8253944    0.234726953484
     29   S      80             0.6401217    0.813757326146

     30   S      81             0.1612778    1.000000000000

 H         

     31   S      82            18.7311370    0.033494604338
     31   S      83             2.8253944    0.234726953484
     31   S      84             0.6401217    0.813757326146

     32   S      85             0.1612778    1.000000000000

 H         

     33   S      86            18.7311370    0.033494604338
     33   S      87             2.8253944    0.234726953484
     33   S      88             0.6401217    0.813757326146

     34   S      89             0.1612778    1.000000000000

 H         

     35   S      90            18.7311370    0.033494604338
     35   S      91             2.8253944    0.234726953484
     35   S      92             0.6401217    0.813757326146

     36   S      93             0.1612778    1.000000000000

 H         

     37   S      94            18.7311370    0.033494604338
     37   S      95             2.8253944    0.234726953484
     37   S      96             0.6401217    0.813757326146

     38   S      97             0.1612778    1.000000000000

 H         

     39   S      98            18.7311370    0.033494604338
     39   S      99             2.8253944    0.234726953484
     39   S     100             0.6401217    0.813757326146

     40   S     101             0.1612778    1.000000000000

 H         

     41   S     102            18.7311370    0.033494604338
     41   S     103             2.8253944    0.234726953484
     41   S     104             0.6401217    0.813757326146

     42   S     105             0.1612778    1.000000000000

 H         

     43   S     106            18.7311370    0.033494604338
     43   S     107             2.8253944    0.234726953484
     43   S     108             0.6401217    0.813757326146

     44   S     109             0.1612778    1.000000000000

 TOTAL NUMBER OF BASIS SET SHELLS             =   44
 NUMBER OF CARTESIAN GAUSSIAN BASIS FUNCTIONS =  121
 NUMBER OF ELECTRONS                          =   54
 CHARGE OF MOLECULE                           =    0
 SPIN MULTIPLICITY                            =    1
 NUMBER OF OCCUPIED ORBITALS (ALPHA)          =   27
 NUMBER OF OCCUPIED ORBITALS (BETA )          =   27
 TOTAL NUMBER OF ATOMS                        =   15
 THE NUCLEAR REPULSION ENERGY IS      293.0548120744

 SELECTED MURRAY-HANDY-LAMING RADIAL GRID

 LEGACY BECKE'S FUZZY CELL METHOD

 SELECTED ORIGINAL BECKE'S PARTITION FUNCTION

     LEBEDEV GRID-BASED DFT OPTIONS
     ------------------------------
     DFTTYP=B3LYP   
     NRAD  =      96     NLEB  =     590
     NRAD0 =      24     NLEB0 =     110
     SWOFF =    5.00E-03 (PURE SCF -> DFT)
     SWITCH=    3.00E-04 (COARSE -> TIGHT GRID)
     THRESH=    0.00E+00 GTHRE=    1.00E+00

 GRIMME'S EMPIRICAL DISPERSION CORRECTION= F

     $CONTRL OPTIONS
     ---------------
 SCFTYP=RHF          RUNTYP=OPTIMIZE     EXETYP=RUN     
 MPLEVL=       0     CITYP =NONE         CCTYP =NONE         VBTYP =NONE    
 DFTTYP=B3LYP        TDDFT =NONE    
 MULT  =       1     ICHARG=       0     NZVAR =       0     COORD =UNIQUE  
 PP    =NONE         RELWFN=NONE         LOCAL =NONE         NUMGRD=       F
 ISPHER=      -1     NOSYM =       0     MAXIT =     200     UNITS =ANGS    
 PLTORB=       F     MOLPLT=       F     AIMPAC=       F     FRIEND=        
 NPRINT=       7     IREST =       0     GEOM  =INPUT   
 NORMF =       0     NORMP =       0     ITOL  =      20     ICUT  =       9
 INTTYP=BEST         GRDTYP=BEST         QMTTOL= 1.0E-06

     $SYSTEM OPTIONS
     ---------------
  REPLICATED MEMORY=   250000000 WORDS (ON EVERY NODE).
 DISTRIBUTED MEMDDI=           0 MILLION WORDS IN AGGREGATE,
 MEMDDI DISTRIBUTED OVER   1 PROCESSORS IS           0 WORDS/PROCESSOR.
 TOTAL MEMORY REQUESTED ON EACH PROCESSOR=   250000000 WORDS.
 TIMLIM=        2879.00 MINUTES, OR       2.0 DAYS.
 PARALL= F  BALTYP=  DLB     KDIAG=    0  COREFL= F
 MXSEQ2=     300 MXSEQ3=     150  mem10=         0

          ----------------
          PROPERTIES INPUT
          ----------------

     MOMENTS            FIELD           POTENTIAL          DENSITY
 IEMOM =       1   IEFLD =       0   IEPOT =       0   IEDEN =       0
 WHERE =COMASS     WHERE =NUCLEI     WHERE =NUCLEI     WHERE =NUCLEI  
 OUTPUT=BOTH       OUTPUT=BOTH       OUTPUT=BOTH       OUTPUT=BOTH    
 IEMINT=       0   IEFINT=       0                     IEDINT=       0
                                                       MORB  =       0
          EXTRAPOLATION IN EFFECT
          DIIS IN EFFECT
 ORBITAL PRINTING OPTION: NPREO=     1   121     2     1

     -------------------------------
     INTEGRAL TRANSFORMATION OPTIONS
     -------------------------------
     NWORD  =            0
     CUTOFF = 1.0E-09     MPTRAN =       0
     DIRTRF =       T     AOINTS =DUP     

          ----------------------
          INTEGRAL INPUT OPTIONS
          ----------------------
 NOPK  =       1 NORDER=       0 SCHWRZ=       T

     ------------------------------------------
     THE POINT GROUP IS C1 , NAXIS= 0, ORDER= 1
     ------------------------------------------

     DIMENSIONS OF THE SYMMETRY SUBSPACES ARE
 A   =  121

 ..... DONE SETTING UP THE RUN .....
 STEP CPU TIME =     0.01 TOTAL CPU TIME =          0.0 (      0.0 MIN)
 TOTAL WALL CLOCK TIME=          0.0 SECONDS, CPU UTILIZATION IS    33.33%


          -----------------------------
          STATIONARY POINT LOCATION RUN
          -----------------------------

 OBTAINING INITIAL HESSIAN, HESS=GUESS   
 CARTESIAN COORDINATE OPTIMIZATION USING BADGER'S RULE FORCE CONSTANT GUESS

          PARAMETERS CONTROLLING GEOMETRY SEARCH ARE
          METHOD =QA                  UPHESS =BFGS    
          NNEG   =         0          NFRZ   =         0
          NSTEP  =       999          IFOLOW =         1
          HESS   =GUESS               RESTAR =         F
          IHREP  =         0          HSSEND =         F
          NPRT   =         0          NPUN   =         0
          OPTTOL = 5.000E-04          RMIN   = 1.500E-03
          RMAX   = 1.000E-01          RLIM   = 7.000E-02
          DXMAX  = 3.000E-01          PURIFY =         F
          MOVIE  =         F          TRUPD  =         T
          TRMAX  = 5.000E-01          TRMIN  = 5.000E-02
          ITBMAT =         5          STPT   =         F
          STSTEP = 1.000E-02          PROJCT=          T

 BEGINNING GEOMETRY SEARCH POINT NSERCH=   0 ...

 COORDINATES OF ALL ATOMS ARE (ANGS)
   ATOM   CHARGE       X              Y              Z
 ------------------------------------------------------------
 O           8.0  -1.3197000000  -1.2209000000   0.0368000000
 O           8.0   1.3189000000  -1.2208000000  -0.0383000000
 C           6.0   0.0000000000   0.8033000000   0.0172000000
 C           6.0  -1.2888000000   0.0079000000  -0.0028000000
 C           6.0   1.2890000000   0.0077000000   0.0065000000
 C           6.0  -2.5635000000   0.8117000000  -0.0267000000
 C           6.0   2.5641000000   0.8112000000   0.0073000000
 H           1.0  -0.0039000000   1.4194000000   0.9225000000
 H           1.0   0.0041000000   1.4509000000  -0.8660000000
 H           1.0  -2.6370000000   1.4086000000   0.8856000000
 H           1.0  -2.5706000000   1.4619000000  -0.9050000000
 H           1.0  -3.4235000000   0.1385000000  -0.0820000000
 H           1.0   3.4248000000   0.1378000000   0.0488000000
 H           1.0   2.6220000000   1.4070000000  -0.9068000000
 H           1.0   2.5863000000   1.4625000000   0.8846000000

          ********************
          1 ELECTRON INTEGRALS
          ********************
 ...... END OF ONE-ELECTRON INTEGRALS ......
 STEP CPU TIME =     0.02 TOTAL CPU TIME =          0.0 (      0.0 MIN)
 TOTAL WALL CLOCK TIME=          0.0 SECONDS, CPU UTILIZATION IS    60.00%

          -------------
          GUESS OPTIONS
          -------------
          GUESS =HUCKEL            NORB  =       0          NORDER=       0
          MIX   =       F          PRTMO =       F          PUNMO =       F
          TOLZ  = 1.0E-08          TOLE  = 1.0E-05
          SYMDEN=       F          PURIFY=       F

 INITIAL GUESS ORBITALS GENERATED BY HUCKEL   ROUTINE.
 HUCKEL GUESS REQUIRES    124942 WORDS.

 SYMMETRIES FOR INITIAL GUESS ORBITALS FOLLOW.   BOTH SET(S).
    27 ORBITALS ARE OCCUPIED (    7 CORE ORBITALS).
     8=A        9=A       10=A       11=A       12=A       13=A       14=A   
    15=A       16=A       17=A       18=A       19=A       20=A       21=A   
    22=A       23=A       24=A       25=A       26=A       27=A       28=A   
    29=A       30=A       31=A       32=A       33=A       34=A       35=A   
    36=A       37=A   
 ...... END OF INITIAL ORBITAL SELECTION ......
 STEP CPU TIME =     0.02 TOTAL CPU TIME =          0.0 (      0.0 MIN)
 TOTAL WALL CLOCK TIME=          0.1 SECONDS, CPU UTILIZATION IS    62.50%

                    ----------------------
                    AO INTEGRAL TECHNOLOGY
                    ----------------------
     S,P,L SHELL ROTATED AXIS INTEGRALS, REPROGRAMMED BY
        KAZUYA ISHIMURA (IMS) AND JOSE SIERRA (SYNSTAR).
     S,P,D,L SHELL ROTATED AXIS INTEGRALS PROGRAMMED BY
        KAZUYA ISHIMURA (INSTITUTE FOR MOLECULAR SCIENCE).
     S,P,D,F,G SHELL TO TOTAL QUARTET ANGULAR MOMENTUM SUM 5,
        ERIC PROGRAM BY GRAHAM FLETCHER (ELORET AND NASA ADVANCED
        SUPERCOMPUTING DIVISION, AMES RESEARCH CENTER).
     S,P,D,F,G,L SHELL GENERAL RYS QUADRATURE PROGRAMMED BY
        MICHEL DUPUIS (PACIFIC NORTHWEST NATIONAL LABORATORY).

          --------------------
          2 ELECTRON INTEGRALS
          --------------------

 DIRECT SCF METHOD SKIPS INTEGRAL STORAGE ON DISK.
 DIRECT TRANSFORMATION SKIPS AO INTEGRAL STORAGE ON DISK.
  ...... END OF TWO-ELECTRON INTEGRALS .....
 STEP CPU TIME =     0.00 TOTAL CPU TIME =          0.0 (      0.0 MIN)
 TOTAL WALL CLOCK TIME=          0.1 SECONDS, CPU UTILIZATION IS    50.00%

          --------------------------
             R-B3LYP SCF CALCULATION
          --------------------------

     NUCLEAR ENERGY =       293.0548120744
     MAXIT =  200     NPUNCH=    2
     EXTRAP=T  DAMP=F  SHIFT=F  RSTRCT=F  DIIS=T  DEM=F  SOSCF=F
         DENSITY MATRIX CONVERGENCE THRESHOLD=  2.00E-05
     COARSE -> FINE DFT GRID SWITCH THRESHOLD=  3.00E-04 (SWITCH IN $DFT)
                   HF -> DFT SWITCH THRESHOLD=  5.00E-03 (SWOFF IN $DFT)
     MEMORY REQUIRED FOR RHF ITERS=   1112380 WORDS.

 DIRECT SCF CALCULATION, SCHWRZ=T   FDIFF=T,  DIRTHR=  0.00E+00 NITDIR=10
 SCHWARZ INEQUALITY OVERHEAD:      7239 INTEGRALS, T=        0.00

 DFT CODE IS SWITCHING FROM THE FINE GRID NRAD= 96,  NLEB=  590
                      TO THE COARSE GRID NRAD0= 24, NLEB0=  110

     EXCHANGE FUNCTIONAL   =B88&HFX   
     CORRELATION FUNCTIONAL=LYP88&VWN5
     DFT THRESHOLD         =.471E-08
     GRID CHANGE THRESHOLD =.300E-03
 FOR AN EULER-MACLAURIN QUADRATURE USING  96 RADIAL POINTS:
 SMALLEST GAUSSIAN PRIMITIVE EXPONENT=        0.1612777588 OF TYPE -S-
 ON ATOM NUMBER   8 HAS RADIAL NORMALIZATION=  1.000000
  LARGEST GAUSSIAN PRIMITIVE EXPONENT=     5484.6716600000 OF TYPE -S-
 ON ATOM NUMBER   1 HAS RADIAL NORMALIZATION=  1.000000
 DFT IS SWITCHED OFF, PERFORMING PURE SCF UNTIL SWOFF THRESHOLD IS REACHED.

                                                                                   NONZERO     BLOCKS
 ITER EX DEM     TOTAL ENERGY        E CHANGE  DENSITY CHANGE    DIIS ERROR      INTEGRALS    SKIPPED
   1  0  0     -342.6404728027  -342.6404728027   0.303812514   0.698309074       20267331     143261
          * * *   INITIATING DIIS PROCEDURE   * * *
   2  1  0     -343.5004637861    -0.8599909834   0.222031373   0.207216288       20264549     147515
   3  2  0     -343.5788243384    -0.0783605523   0.120096503   0.164273866       20207502     155559
   4  3  0     -343.7064622698    -0.1276379313   0.013939014   0.011205686       20115447     163901
   5  4  0     -343.7077029621    -0.0012406923   0.004863756   0.003712727       19846398     180099
 CONVERGED TO SWOFF, SO DFT CALCULATION IS NOW SWITCHED ON.
          * * *   INITIATING DIIS PROCEDURE   * * *
   6  5  0     -345.5405244394    -1.8328214773   0.132676465   0.109273351       20274161     143015
   7  6  0     -345.5684313091    -0.0279068697   0.071019704   0.047389557       20192392     157452
   8  7  0     -345.5563608880     0.0120704211   0.056660957   0.077418139       20082622     165371
   9  8  0     -345.5772266773    -0.0208657893   0.009400244   0.011110290       20009430     170456
  10  9  0     -345.5778433825    -0.0006167052   0.001874797   0.000943842       19670022     185975
  11 10  0     -345.5778496488    -0.0000062664   0.000138319   0.000208261       18987810     211112
 DFT CODE IS SWITCHING BACK TO THE FINE GRID
          * * *   INITIATING DIIS PROCEDURE   * * *
  12 11  0     -345.5798633653    -0.0020137164   0.006103154   0.001776083       20276994     142066
  13 12  0     -345.5798803964    -0.0000170311   0.001239172   0.000444579       19420901     200079
  14 13  0     -345.5798779630     0.0000024334   0.000864760   0.000871402       18664348     222634
  15 14  0     -345.5798814173    -0.0000034543   0.000085706   0.000111891       18499393     226936
  16 15  0     -345.5798814551    -0.0000000377   0.000025169   0.000027128       17057881     260446
  17 16  0     -345.5798814608    -0.0000000057   0.000011377   0.000007300       16012336     278617
  18 17  0     -345.5798814611    -0.0000000003   0.000004233   0.000004234       15125971     294774

          -----------------
          DENSITY CONVERGED
          -----------------
     TIME TO FORM FOCK OPERATORS=      31.6 SECONDS (       1.8 SEC/ITER)
     FOCK TIME ON FIRST ITERATION=       0.6, LAST ITERATION=       3.4
     TIME TO SOLVE SCF EQUATIONS=       0.2 SECONDS (       0.0 SEC/ITER)

 FINAL R-B3LYP ENERGY IS     -345.5798814611 AFTER  18 ITERATIONS
 DFT EXCHANGE + CORRELATION ENERGY =       -38.0208927420
 TOTAL ELECTRON NUMBER             =        54.0000132269

          ------------
          EIGENVECTORS
          ------------

                      1          2          3          4          5
                  -19.1313   -19.1313   -10.2763   -10.2763   -10.2085
                     A          A          A          A          A   
    1  O  1  S   -0.137301   0.983174  -0.000045  -0.000067   0.000007
    2  O  1  S   -0.003284   0.025277  -0.000241   0.000599   0.000014
    3  O  1  X    0.000082  -0.000004  -0.000023  -0.000015   0.000033
    4  O  1  Y   -0.000148   0.001109  -0.000026  -0.000034  -0.000009
    5  O  1  Z   -0.000000  -0.000034   0.000002  -0.000004  -0.000002
    6  O  1  S   -0.003308   0.014538   0.001448  -0.004027  -0.000614
    7  O  1  X   -0.000291   0.000054   0.000045   0.000034  -0.000688
    8  O  1  Y   -0.000465   0.001803   0.000484  -0.002157  -0.000155
    9  O  1  Z    0.000030  -0.000067  -0.000019   0.000106  -0.000000
   10  O  1 XX    0.001284  -0.008139  -0.000179   0.000394   0.000062
   11  O  1 YY    0.001267  -0.007606  -0.000088  -0.000221   0.000071
   12  O  1 ZZ    0.001379  -0.008164  -0.000194   0.000577  -0.000081
   13  O  1 XY   -0.000033   0.000014   0.000018  -0.000006  -0.000111
   14  O  1 XZ    0.000006   0.000000  -0.000001  -0.000004   0.000013
   15  O  1 YZ    0.000005  -0.000022  -0.000004   0.000038  -0.000006
   16  O  2  S    0.983157   0.137425  -0.000062  -0.000053   0.000007
   17  O  2  S    0.025209   0.003770   0.000622  -0.000176   0.000016
   18  O  2  X    0.000027  -0.000078   0.000012   0.000024  -0.000033
   19  O  2  Y    0.001107   0.000161  -0.000031  -0.000030  -0.000009
   20  O  2  Z    0.000037   0.000009   0.000004   0.000001  -0.000001
   21  O  2  S    0.014893   0.000801  -0.004165   0.001007  -0.000627
   22  O  2  X   -0.000130   0.000266  -0.000031  -0.000050   0.000689
   23  O  2  Y    0.001863   0.000046  -0.002198   0.000248  -0.000159
   24  O  2  Z    0.000079  -0.000004  -0.000113   0.000001  -0.000003
   25  O  2 XX   -0.008180  -0.000995   0.000411  -0.000136   0.000064
   26  O  2 YY   -0.007662  -0.000866  -0.000210  -0.000113   0.000072
   27  O  2 ZZ   -0.008230  -0.000912   0.000595  -0.000130  -0.000079
   28  O  2 XY   -0.000022   0.000028   0.000007  -0.000018   0.000112
   29  O  2 XZ   -0.000002   0.000006   0.000001  -0.000000   0.000008
   30  O  2 YZ    0.000025   0.000002  -0.000042  -0.000000   0.000006
   31  C  3  S    0.000004   0.000006   0.001553   0.001735   0.993031
   32  C  3  S    0.000058   0.000079  -0.000069  -0.000077   0.051186
   33  C  3  X    0.000060  -0.000045  -0.000277   0.000248  -0.000000
   34  C  3  Y    0.000004   0.000004   0.000232   0.000259   0.000096
   35  C  3  Z    0.000000  -0.000001   0.000004   0.000010   0.000002
   36  C  3  S   -0.000702  -0.000945   0.003827   0.004276  -0.023702
   37  C  3  X   -0.001427   0.001074   0.003114  -0.002790   0.000001
   38  C  3  Y   -0.000160  -0.000206  -0.000971  -0.001085   0.002657
   39  C  3  Z   -0.000034   0.000050  -0.000005  -0.000100   0.000047
   40  C  3 XX   -0.000007  -0.000009  -0.000306  -0.000341  -0.009060
   41  C  3 YY   -0.000016  -0.000021  -0.000292  -0.000325  -0.009178
   42  C  3 ZZ   -0.000005  -0.000006  -0.000062  -0.000069  -0.008868
   43  C  3 XY    0.000010  -0.000008   0.000215  -0.000192   0.000000
   44  C  3 XZ    0.000001  -0.000002   0.000000  -0.000004   0.000001
   45  C  3 YZ   -0.000003   0.000003  -0.000002  -0.000005  -0.000005
   46  C  4  S    0.000015  -0.000018  -0.054254   0.991452  -0.001876
   47  C  4  S   -0.000036   0.000405  -0.002740   0.048747  -0.000361
   48  C  4  X   -0.000028   0.000010  -0.000010   0.000007  -0.000133
   49  C  4  Y   -0.000013  -0.000023   0.000081  -0.000551  -0.000055
   50  C  4  Z   -0.000005   0.000001  -0.000001   0.000028  -0.000003
   51  C  4  S    0.000065  -0.002263   0.000414  -0.011417   0.005660
   52  C  4  X    0.000216   0.000180  -0.000007  -0.000454   0.004309
   53  C  4  Y   -0.001423   0.004145   0.001182  -0.005333   0.000817
   54  C  4  Z    0.000039  -0.000112  -0.000024   0.000061   0.000073
   55  C  4 XX    0.000053  -0.000033   0.000486  -0.009288  -0.000266
   56  C  4 YY    0.000129  -0.000860   0.000432  -0.008220  -0.000202
   57  C  4 ZZ    0.000032  -0.000065   0.000483  -0.009407  -0.000139
   58  C  4 XY   -0.000063  -0.000020   0.000033   0.000030  -0.000175
   59  C  4 XZ    0.000001   0.000000   0.000001   0.000001   0.000002
   60  C  4 YZ   -0.000003   0.000032   0.000007  -0.000039  -0.000008
   61  C  5  S   -0.000021   0.000009   0.991453   0.054222  -0.001873
   62  C  5  S    0.000399   0.000076   0.048756   0.002594  -0.000360
   63  C  5  X   -0.000017   0.000024  -0.000008   0.000009   0.000133
   64  C  5  Y   -0.000018  -0.000018  -0.000558   0.000020  -0.000055
   65  C  5  Z   -0.000003   0.000005  -0.000028   0.000001  -0.000001
   66  C  5  S   -0.002202  -0.000550  -0.011389  -0.000840   0.005663
   67  C  5  X   -0.000106  -0.000263   0.000447   0.000058  -0.004312
   68  C  5  Y    0.004377  -0.000232  -0.005431   0.000595   0.000812
   69  C  5  Z    0.000146  -0.000030  -0.000098   0.000043   0.000009
   70  C  5 XX   -0.000046   0.000042  -0.009286  -0.000530  -0.000266
   71  C  5 YY   -0.000863  -0.000112  -0.008218  -0.000467  -0.000202
   72  C  5 ZZ   -0.000072   0.000013  -0.009403  -0.000546  -0.000139
   73  C  5 XY    0.000001   0.000066  -0.000025  -0.000036   0.000175
   74  C  5 XZ   -0.000001   0.000003  -0.000004  -0.000002   0.000007
   75  C  5 YZ   -0.000035  -0.000008   0.000046   0.000003   0.000002
   76  C  6  S    0.000002   0.000006  -0.000107   0.001342  -0.000325
   77  C  6  S   -0.000003   0.000086  -0.000096  -0.000105  -0.000303
   78  C  6  X    0.000040  -0.000006  -0.000044  -0.000155  -0.000073
   79  C  6  Y   -0.000001   0.000008  -0.000041   0.000213  -0.000059
   80  C  6  Z    0.000003   0.000003  -0.000004   0.000003  -0.000002
   81  C  6  S    0.000491  -0.000732  -0.000015   0.003903   0.001906
   82  C  6  X    0.000178  -0.000751   0.000095   0.002086   0.000467
   83  C  6  Y   -0.000006  -0.000403   0.000160  -0.000539  -0.000321
   84  C  6  Z   -0.000016  -0.000010   0.000024  -0.000006   0.000017
   85  C  6 XX    0.000016  -0.000059  -0.000011  -0.000259  -0.000086
   86  C  6 YY   -0.000007   0.000009  -0.000009  -0.000357   0.000007
   87  C  6 ZZ    0.000017  -0.000010  -0.000035  -0.000039  -0.000131
   88  C  6 XY    0.000011   0.000008  -0.000027   0.000219  -0.000015
   89  C  6 XZ   -0.000001   0.000003   0.000001  -0.000007   0.000001
   90  C  6 YZ   -0.000001   0.000004  -0.000000   0.000000  -0.000002
   91  C  7  S    0.000005   0.000004   0.001346   0.000040  -0.000325
   92  C  7  S    0.000084   0.000020  -0.000094  -0.000107  -0.000303
   93  C  7  X    0.000017  -0.000037   0.000150   0.000061   0.000073
   94  C  7  Y    0.000008   0.000001   0.000216  -0.000017  -0.000058
   95  C  7  Z   -0.000003  -0.000004  -0.000007   0.000002   0.000003
   96  C  7  S   -0.000840   0.000273   0.003883   0.000409   0.001906
   97  C  7  X    0.000770   0.000034  -0.002064  -0.000321  -0.000468
   98  C  7  Y   -0.000386  -0.000116  -0.000552   0.000098  -0.000323
   99  C  7  Z   -0.000016   0.000031   0.000060  -0.000023  -0.000022
  100  C  7 XX   -0.000060  -0.000001  -0.000257  -0.000039  -0.000086
  101  C  7 YY    0.000011  -0.000004  -0.000353  -0.000048   0.000007
  102  C  7 ZZ   -0.000015   0.000013  -0.000035  -0.000040  -0.000131
  103  C  7 XY   -0.000004  -0.000013  -0.000221   0.000003   0.000015
  104  C  7 XZ    0.000005  -0.000001  -0.000003  -0.000000  -0.000002
  105  C  7 YZ   -0.000004  -0.000001   0.000004   0.000002   0.000001
  106  H  8  S    0.000019   0.000009  -0.000138  -0.000144   0.000145
  107  H  8  S    0.000037   0.000061   0.000305   0.000348   0.002926
  108  H  9  S    0.000005   0.000024  -0.000128  -0.000152   0.000145
  109  H  9  S    0.000055   0.000060   0.000273   0.000297   0.002931
  110  H 10  S    0.000000   0.000015  -0.000028  -0.000159  -0.000041
  111  H 10  S   -0.000021   0.000112  -0.000095   0.000203  -0.000308
  112  H 11  S   -0.000002   0.000022  -0.000025  -0.000160  -0.000045
  113  H 11  S   -0.000040   0.000100  -0.000082   0.000138  -0.000302
  114  H 12  S   -0.000011   0.000021   0.000010  -0.000072  -0.000077
  115  H 12  S   -0.000026  -0.000344   0.000138   0.000140   0.000133
  116  H 13  S    0.000023  -0.000005  -0.000073   0.000002  -0.000077
  117  H 13  S   -0.000323  -0.000118   0.000125   0.000151   0.000132
  118  H 14  S    0.000014   0.000005  -0.000156  -0.000043  -0.000040
  119  H 14  S    0.000110   0.000016   0.000222  -0.000079  -0.000321
  120  H 15  S    0.000022   0.000004  -0.000155  -0.000044  -0.000045
  121  H 15  S    0.000111  -0.000018   0.000134  -0.000058  -0.000287

                      6          7          8          9         10
                  -10.1903   -10.1902    -1.0319    -1.0172    -0.7963
                     A          A          A          A          A   
    1  O  1  S   -0.000015  -0.000012  -0.133031  -0.139011   0.052696
    2  O  1  S   -0.000062  -0.000084   0.289223   0.300623  -0.120198
    3  O  1  X    0.000001  -0.000013   0.005224  -0.001615   0.006629
    4  O  1  Y   -0.000010  -0.000021   0.110470   0.114804  -0.007987
    5  O  1  Z    0.000001  -0.000003  -0.003454  -0.003487   0.000889
    6  O  1  S    0.000228  -0.000062   0.276481   0.302401  -0.115453
    7  O  1  X   -0.000131   0.000501   0.001242  -0.002685   0.003316
    8  O  1  Y    0.000069   0.000059   0.040961   0.046152   0.003885
    9  O  1  Z   -0.000007   0.000019  -0.001224  -0.001432  -0.000072
   10  O  1 XX   -0.000033   0.000009  -0.007462  -0.009892   0.001013
   11  O  1 YY   -0.000030   0.000049   0.007332   0.006949   0.002079
   12  O  1 ZZ   -0.000068  -0.000130  -0.004351  -0.005428  -0.000183
   13  O  1 XY   -0.000024   0.000066   0.000728   0.000284   0.001041
   14  O  1 XZ    0.000002  -0.000005  -0.000079  -0.000040   0.000000
   15  O  1 YZ   -0.000002  -0.000003  -0.000428  -0.000466  -0.000014
   16  O  2  S   -0.000011  -0.000016  -0.134041   0.138040   0.052675
   17  O  2  S   -0.000081  -0.000067   0.291393  -0.298506  -0.120149
   18  O  2  X    0.000013  -0.000001  -0.005128  -0.001746  -0.006646
   19  O  2  Y   -0.000021  -0.000011   0.111312  -0.114009  -0.007977
   20  O  2  Z    0.000002   0.000001   0.003945  -0.003939  -0.000764
   21  O  2  S   -0.000071   0.000231   0.278661  -0.300356  -0.115404
   22  O  2  X   -0.000506   0.000106  -0.001194  -0.002735  -0.003315
   23  O  2  Y    0.000056   0.000074   0.041286  -0.045842   0.003890
   24  O  2  Z   -0.000006  -0.000002   0.001458  -0.001527   0.000128
   25  O  2 XX    0.000010  -0.000033  -0.007537   0.009839   0.001011
   26  O  2 YY    0.000051  -0.000028   0.007377  -0.006892   0.002079
   27  O  2 ZZ   -0.000126  -0.000075  -0.004390   0.005392  -0.000182
   28  O  2 XY   -0.000067   0.000020  -0.000719   0.000266  -0.001041
   29  O  2 XZ   -0.000010   0.000002   0.000007  -0.000043  -0.000036
   30  O  2 YZ    0.000005   0.000001   0.000501  -0.000514   0.000039
   31  C  3  S    0.000202   0.000213  -0.029018  -0.000117  -0.149166
   32  C  3  S   -0.000259  -0.000273   0.052109   0.000218   0.285472
   33  C  3  X   -0.000120   0.000114   0.000095  -0.029496  -0.000015
   34  C  3  Y   -0.000086  -0.000091  -0.027625  -0.000108  -0.000317
   35  C  3  Z   -0.000005   0.000002  -0.000373   0.000280  -0.000589
   36  C  3  S    0.001235   0.001302   0.018316   0.000050   0.243233
   37  C  3  X    0.001354  -0.001293  -0.000139   0.028580   0.000013
   38  C  3  Y    0.000228   0.000242  -0.010975  -0.000042   0.006152
   39  C  3  Z    0.000030  -0.000008   0.000274   0.001519  -0.000101
   40  C  3 XX   -0.000064  -0.000067   0.003965   0.000017   0.001385
   41  C  3 YY   -0.000051  -0.000054   0.003855   0.000013  -0.004830
   42  C  3 ZZ   -0.000099  -0.000104  -0.001592  -0.000005   0.001263
   43  C  3 XY   -0.000085   0.000081  -0.000023   0.007155   0.000001
   44  C  3 XZ   -0.000004   0.000002  -0.000098   0.000070   0.000040
   45  C  3 YZ   -0.000001  -0.000002   0.000101  -0.000019  -0.000083
   46  C  4  S    0.000022  -0.001565  -0.086305  -0.084462  -0.061214
   47  C  4  S   -0.000115  -0.000278   0.166476   0.162646   0.121929
   48  C  4  X   -0.000063   0.000233   0.003632  -0.009526   0.040291
   49  C  4  Y    0.000021  -0.000037  -0.117564  -0.127569   0.139857
   50  C  4  Z   -0.000004   0.000002   0.004115   0.004361  -0.001655
   51  C  4  S    0.000410   0.004196   0.060026   0.073169   0.085851
   52  C  4  X    0.001170  -0.003623   0.000753   0.001235   0.000514
   53  C  4  Y    0.000089   0.000876   0.027961   0.046493   0.035240
   54  C  4  Z    0.000021  -0.000071  -0.000811  -0.001031  -0.000382
   55  C  4 XX    0.000008  -0.000314  -0.011359  -0.014175   0.011065
   56  C  4 YY   -0.000028  -0.000221   0.014711   0.015271  -0.009304
   57  C  4 ZZ   -0.000064  -0.000120  -0.013715  -0.013718  -0.004459
   58  C  4 XY    0.000025   0.000137   0.000750   0.000836   0.003324
   59  C  4 XZ    0.000001  -0.000007  -0.000006  -0.000009   0.000319
   60  C  4 YZ    0.000000   0.000003  -0.001022  -0.001093   0.000457
   61  C  5  S   -0.001565  -0.000056  -0.086924   0.083841  -0.061198
   62  C  5  S   -0.000272  -0.000129   0.167657  -0.161448   0.121891
   63  C  5  X   -0.000236   0.000052  -0.003657  -0.009454  -0.040208
   64  C  5  Y   -0.000038   0.000019  -0.118509   0.126740   0.139825
   65  C  5  Z    0.000001  -0.000000  -0.004568   0.004944   0.002966
   66  C  5  S    0.004174   0.000616   0.060578  -0.072676   0.085835
   67  C  5  X    0.003676  -0.000991  -0.000757   0.001196  -0.000495
   68  C  5  Y    0.000874   0.000136   0.028323  -0.046270   0.035228
   69  C  5  Z   -0.000007   0.000014   0.000684  -0.001590   0.000600
   70  C  5 XX   -0.000314  -0.000007  -0.011468   0.014098   0.011071
   71  C  5 YY   -0.000220  -0.000039   0.014816  -0.015159  -0.009300
   72  C  5 ZZ   -0.000117  -0.000069  -0.013811   0.013612  -0.004464
   73  C  5 XY   -0.000136  -0.000032  -0.000733   0.000803  -0.003334
   74  C  5 XZ   -0.000002   0.000001  -0.000026   0.000037  -0.000069
   75  C  5 YZ   -0.000002   0.000000   0.001171  -0.001223  -0.000419
   76  C  6  S   -0.024479   0.992588  -0.014256  -0.015009  -0.063983
   77  C  6  S   -0.001328   0.050497   0.026542   0.027855   0.122352
   78  C  6  X   -0.000020   0.000144   0.014480   0.013826   0.035803
   79  C  6  Y   -0.000024   0.000127  -0.014218  -0.015333  -0.000204
   80  C  6  Z   -0.000001   0.000011   0.000469   0.000487   0.000488
   81  C  6  S    0.001079  -0.018463   0.006082   0.000137   0.093152
   82  C  6  X    0.000339  -0.001447  -0.006210  -0.008933   0.003896
   83  C  6  Y   -0.000223   0.000878  -0.006325  -0.006533   0.004370
   84  C  6  Z    0.000009  -0.000025   0.000223   0.000320  -0.000095
   85  C  6 XX    0.000215  -0.009256   0.002170   0.001854   0.002426
   86  C  6 YY    0.000232  -0.009263   0.002234   0.002637  -0.001820
   87  C  6 ZZ    0.000198  -0.009159  -0.000746  -0.000906   0.000096
   88  C  6 XY   -0.000026   0.000089  -0.003345  -0.003487  -0.000394
   89  C  6 XZ    0.000000  -0.000002   0.000137   0.000147   0.000004
   90  C  6 YZ   -0.000000   0.000002  -0.000052  -0.000056  -0.000030
   91  C  7  S    0.992588   0.024448  -0.014362   0.014901  -0.063974
   92  C  7  S    0.050501   0.001162   0.026735  -0.027659   0.122337
   93  C  7  X   -0.000145   0.000013  -0.014587   0.013733  -0.035801
   94  C  7  Y    0.000128  -0.000017  -0.014327   0.015226  -0.000197
   95  C  7  Z   -0.000008   0.000001  -0.000239   0.000239   0.000232
   96  C  7  S   -0.018493   0.000167   0.006074  -0.000085   0.093145
   97  C  7  X    0.001463  -0.000267   0.006261  -0.008880  -0.003891
   98  C  7  Y    0.000888  -0.000181  -0.006367   0.006500   0.004377
   99  C  7  Z    0.000001  -0.000010  -0.000256   0.000729   0.000148
  100  C  7 XX   -0.009256  -0.000241   0.002188  -0.001845   0.002424
  101  C  7 YY   -0.009263  -0.000225   0.002252  -0.002619  -0.001819
  102  C  7 ZZ   -0.009157  -0.000254  -0.000756   0.000903   0.000097
  103  C  7 XY   -0.000090   0.000022   0.003372  -0.003464   0.000393
  104  C  7 XZ    0.000000   0.000000   0.000078  -0.000105  -0.000048
  105  C  7 YZ   -0.000002  -0.000000  -0.000008   0.000005   0.000017
  106  H  8  S   -0.000081  -0.000088   0.010012  -0.000001   0.093788
  107  H  8  S   -0.000343  -0.000324  -0.000204  -0.000199   0.017324
  108  H  9  S   -0.000088  -0.000089   0.010021   0.000086   0.094101
  109  H  9  S   -0.000286  -0.000340  -0.000008   0.000199   0.017456
  110  H 10  S   -0.000037  -0.000016   0.004889   0.005211   0.039400
  111  H 10  S   -0.000035   0.002803   0.000824   0.001125   0.008138
  112  H 11  S   -0.000036  -0.000012   0.004876   0.005163   0.039866
  113  H 11  S   -0.000034   0.002803   0.000904   0.001390   0.008374
  114  H 12  S   -0.000019   0.000016   0.006282   0.006968   0.028604
  115  H 12  S   -0.000012   0.002647  -0.001871  -0.000916   0.003092
  116  H 13  S    0.000016  -0.000018   0.006329  -0.006920   0.028601
  117  H 13  S    0.002645   0.000118  -0.001868   0.000906   0.003097
  118  H 14  S   -0.000015  -0.000037   0.004933  -0.005169   0.039352
  119  H 14  S    0.002804   0.000098   0.000877  -0.001001   0.008168
  120  H 15  S   -0.000009  -0.000037   0.004904  -0.005130   0.039904
  121  H 15  S    0.002797   0.000110   0.000864  -0.001514   0.008329

                     11         12         13         14         15
                   -0.7506    -0.7146    -0.5693    -0.5072    -0.4891
                     A          A          A          A          A   
    1  O  1  S   -0.041241   0.002683  -0.042452  -0.065348   0.002461
    2  O  1  S    0.094599  -0.006449   0.098545   0.145523  -0.004914
    3  O  1  X    0.014148  -0.040223  -0.032587   0.006274   0.000252
    4  O  1  Y   -0.000469   0.002007  -0.070984  -0.183176   0.010346
    5  O  1  Z   -0.000056  -0.000668   0.000979   0.008356   0.103991
    6  O  1  S    0.096874  -0.006205   0.119469   0.223883  -0.011227
    7  O  1  X    0.005194  -0.018958  -0.018589   0.003769   0.000293
    8  O  1  Y   -0.005408   0.000902  -0.041528  -0.097764   0.004344
    9  O  1  Z    0.000334  -0.000393   0.000967   0.004570   0.055347
   10  O  1 XX   -0.001006  -0.000227   0.000833   0.000074   0.000266
   11  O  1 YY   -0.002500   0.000203  -0.008559  -0.018003   0.001254
   12  O  1 ZZ    0.000496  -0.000236   0.001672   0.001377  -0.000314
   13  O  1 XY    0.002114  -0.004951  -0.003024   0.000690  -0.000018
   14  O  1 XZ   -0.000065   0.000151   0.000111  -0.000091   0.000543
   15  O  1 YZ    0.000098  -0.000102   0.000228   0.000955   0.009034
   16  O  2  S    0.041241   0.002671   0.042436  -0.065424   0.000910
   17  O  2  S   -0.094599  -0.006412  -0.098516   0.145673  -0.002374
   18  O  2  X    0.014178   0.040240  -0.032548  -0.006348   0.003574
   19  O  2  Y    0.000470   0.002002   0.070957  -0.183483   0.000169
   20  O  2  Z   -0.000344  -0.000168   0.002489  -0.004828   0.104449
   21  O  2  S   -0.096875  -0.006220  -0.119376   0.224258  -0.001478
   22  O  2  X    0.005211   0.018968  -0.018563  -0.003791   0.002279
   23  O  2  Y    0.005410   0.000883   0.041529  -0.097872   0.000920
   24  O  2  Z    0.000253   0.000022   0.001690  -0.002763   0.055594
   25  O  2 XX    0.001010  -0.000217  -0.000842   0.000061  -0.000213
   26  O  2 YY    0.002500   0.000204   0.008551  -0.018038  -0.000292
   27  O  2 ZZ   -0.000498  -0.000236  -0.001666   0.001390   0.000367
   28  O  2 XY    0.002120   0.004953  -0.003016  -0.000703   0.000283
   29  O  2 XZ    0.000047   0.000168  -0.000141  -0.000074  -0.000521
   30  O  2 YZ    0.000078   0.000001   0.000391  -0.000660   0.009082
   31  C  3  S    0.000024   0.107321  -0.000006  -0.047097   0.000624
   32  C  3  S   -0.000048  -0.206289   0.000001   0.092953  -0.001097
   33  C  3  X    0.081621  -0.000025   0.262670  -0.000049  -0.003839
   34  C  3  Y    0.000001   0.008030   0.000042   0.216236  -0.007290
   35  C  3  Z    0.000901  -0.000481   0.001723   0.009812   0.331845
   36  C  3  S   -0.000029  -0.228769   0.000055   0.134604  -0.002664
   37  C  3  X    0.024190   0.000006   0.083127  -0.000014  -0.001512
   38  C  3  Y    0.000003   0.006134  -0.000011   0.097441  -0.002558
   39  C  3  Z    0.000549  -0.000016   0.000593   0.004232   0.148537
   40  C  3 XX    0.000002   0.006176  -0.000002  -0.016806   0.000300
   41  C  3 YY    0.000000   0.000424   0.000002   0.001350  -0.000499
   42  C  3 ZZ   -0.000001  -0.002217   0.000002   0.013168   0.000291
   43  C  3 XY   -0.003017  -0.000001  -0.013809   0.000003  -0.000074
   44  C  3 XZ   -0.000148   0.000077  -0.000265  -0.000199   0.000006
   45  C  3 YZ   -0.000038   0.000017  -0.000086  -0.000044   0.014088
   46  C  4  S    0.056419  -0.003408   0.098323   0.092225  -0.001339
   47  C  4  S   -0.114597   0.006775  -0.214067  -0.209559   0.003008
   48  C  4  X    0.063707  -0.149436  -0.083933   0.030764  -0.001427
   49  C  4  Y   -0.118288   0.009079  -0.116591  -0.000647   0.000773
   50  C  4  Z    0.003004  -0.002673  -0.000489   0.005004   0.165999
   51  C  4  S   -0.077678   0.009507  -0.190421  -0.184027   0.004739
   52  C  4  X    0.004599  -0.012432  -0.017265   0.011058  -0.000941
   53  C  4  Y   -0.024351   0.003827  -0.057402  -0.039821   0.000483
   54  C  4  Z    0.000417  -0.000178   0.000487   0.002733   0.073242
   55  C  4 XX   -0.006811   0.000450   0.005694   0.001514  -0.000053
   56  C  4 YY    0.007459  -0.000164   0.007727   0.013515  -0.000626
   57  C  4 ZZ    0.004118  -0.000228   0.006772   0.006724   0.000308
   58  C  4 XY    0.005841  -0.010614  -0.004711   0.003856  -0.000204
   59  C  4 XZ   -0.000211  -0.000014  -0.000110   0.000061   0.003991
   60  C  4 YZ   -0.000230  -0.000177  -0.000272  -0.000043   0.002664
   61  C  5  S   -0.056429  -0.003380  -0.098312   0.092236  -0.002112
   62  C  5  S    0.114617   0.006725   0.214044  -0.209574   0.004875
   63  C  5  X    0.063874   0.149424  -0.083886  -0.030768   0.004586
   64  C  5  Y    0.118299   0.009010   0.116567  -0.000757  -0.005245
   65  C  5  Z    0.002321  -0.000502   0.003019   0.002744   0.166021
   66  C  5  S    0.077695   0.009447   0.190361  -0.184142   0.003574
   67  C  5  X    0.004625   0.012440  -0.017220  -0.011104   0.000742
   68  C  5  Y    0.024353   0.003769   0.057421  -0.039818   0.000188
   69  C  5  Z    0.000327  -0.000109   0.001695   0.000420   0.073303
   70  C  5 XX    0.006819   0.000450  -0.005692   0.001514   0.000049
   71  C  5 YY   -0.007462  -0.000164  -0.007721   0.013529  -0.000144
   72  C  5 ZZ   -0.004123  -0.000225  -0.006774   0.006714  -0.000385
   73  C  5 XY    0.005838   0.010609  -0.004715  -0.003855   0.000027
   74  C  5 XZ   -0.000041   0.000027  -0.000046  -0.000137  -0.003994
   75  C  5 YZ   -0.000347  -0.000058  -0.000148   0.000274   0.002656
   76  C  6  S    0.126465  -0.119649  -0.056050  -0.018872  -0.000129
   77  C  6  S   -0.241388   0.229614   0.110680   0.035890   0.000451
   78  C  6  X   -0.032407  -0.005883  -0.141297  -0.111067  -0.002073
   79  C  6  Y    0.005270  -0.006245   0.036176   0.102652  -0.000931
   80  C  6  Z   -0.000584   0.000145  -0.002157   0.000300   0.139877
   81  C  6  S   -0.224453   0.230299   0.137655   0.050243  -0.000227
   82  C  6  X   -0.007995  -0.001464  -0.044343  -0.024584  -0.001268
   83  C  6  Y   -0.001882  -0.002152   0.010475   0.044597   0.000390
   84  C  6  Z    0.000121  -0.000221  -0.000650   0.001330   0.058813
   85  C  6 XX   -0.000799  -0.002882  -0.008581  -0.006279  -0.000224
   86  C  6 YY    0.001550   0.000406   0.003209   0.000781  -0.000450
   87  C  6 ZZ   -0.000993   0.001739   0.004696   0.005876   0.000721
   88  C  6 XY   -0.000462   0.002006   0.008642   0.008188  -0.000441
   89  C  6 XZ    0.000016  -0.000047  -0.000168  -0.000236   0.004393
   90  C  6 YZ   -0.000020   0.000101   0.000332   0.000111   0.005576
   91  C  7  S   -0.126543  -0.119569   0.056050  -0.018873   0.000287
   92  C  7  S    0.241538   0.229463  -0.110681   0.035884  -0.000547
   93  C  7  X   -0.032431   0.005874  -0.141303   0.111103  -0.000668
   94  C  7  Y   -0.005269  -0.006245  -0.036141   0.102582  -0.006141
   95  C  7  Z    0.000071  -0.000327   0.001126   0.002362   0.139877
   96  C  7  S    0.224611   0.230167  -0.137660   0.050276  -0.000530
   97  C  7  X   -0.008003   0.001460  -0.044347   0.024595   0.000870
   98  C  7  Y    0.001888  -0.002158  -0.010462   0.044512  -0.004003
   99  C  7  Z    0.000390   0.000190   0.000293  -0.000001   0.058895
  100  C  7 XX    0.000796  -0.002882   0.008585  -0.006282   0.000325
  101  C  7 YY   -0.001550   0.000408  -0.003210   0.000802   0.000564
  102  C  7 ZZ    0.000993   0.001738  -0.004701   0.005856  -0.000894
  103  C  7 XY   -0.000464  -0.002006   0.008643  -0.008197  -0.000136
  104  C  7 XZ   -0.000025   0.000056  -0.000157  -0.000171  -0.004392
  105  C  7 YZ   -0.000016  -0.000071   0.000201   0.000206   0.005557
  106  H  8  S    0.000138  -0.070760   0.000245   0.120760   0.161108
  107  H  8  S    0.000096  -0.014124   0.000075   0.077204   0.119969
  108  H  9  S   -0.000155  -0.070141  -0.000167   0.115148  -0.163351
  109  H  9  S   -0.000108  -0.013664  -0.000026   0.073516  -0.122116
  110  H 10  S   -0.080531   0.079856   0.060901   0.054864   0.069119
  111  H 10  S   -0.017548   0.019244   0.028488   0.037747   0.052398
  112  H 11  S   -0.080622   0.079228   0.059079   0.053794  -0.067096
  113  H 11  S   -0.017324   0.018615   0.027485   0.037821  -0.051725
  114  H 12  S   -0.071517   0.082018   0.088605   0.031731  -0.002518
  115  H 12  S   -0.012602   0.018933   0.044087   0.031697  -0.001790
  116  H 13  S    0.071562   0.081962  -0.088586   0.031850   0.004276
  117  H 13  S    0.012618   0.018921  -0.044078   0.031755   0.001882
  118  H 14  S    0.080557   0.079856  -0.061264   0.052581  -0.071637
  119  H 14  S    0.017612   0.019221  -0.028745   0.035957  -0.054139
  120  H 15  S    0.080696   0.079120  -0.058714   0.055963   0.064341
  121  H 15  S    0.017273   0.018617  -0.027235   0.039572   0.049754

                     16         17         18         19         20
                   -0.4707    -0.4522    -0.4433    -0.4193    -0.4143
                     A          A          A          A          A   
    1  O  1  S   -0.009017  -0.047819  -0.001501  -0.025641  -0.000254
    2  O  1  S    0.018450   0.104715   0.002403   0.051756   0.000830
    3  O  1  X   -0.176069   0.102237   0.002623   0.011436  -0.010957
    4  O  1  Y   -0.012376  -0.174616  -0.009962  -0.136847  -0.002592
    5  O  1  Z    0.000371   0.012436  -0.109062   0.009807   0.014193
    6  O  1  S    0.042036   0.192673   0.009500   0.119018  -0.000744
    7  O  1  X   -0.099282   0.056047   0.001495   0.008894  -0.007014
    8  O  1  Y   -0.002729  -0.082690  -0.003866  -0.069336  -0.001723
    9  O  1  Z   -0.000069   0.007030  -0.058423   0.005465   0.008286
   10  O  1 XX   -0.002221  -0.002588  -0.000323  -0.001642   0.000234
   11  O  1 YY   -0.001369  -0.012697  -0.001146  -0.009715  -0.000060
   12  O  1 ZZ   -0.000537   0.001525   0.000168  -0.000104   0.000043
   13  O  1 XY   -0.013056   0.009569   0.000217  -0.000340  -0.000694
   14  O  1 XZ    0.000378  -0.000250   0.000735  -0.000150  -0.000801
   15  O  1 YZ    0.000027   0.001016  -0.008586   0.000751   0.001016
   16  O  2  S   -0.008954   0.047839   0.000060  -0.025624   0.004652
   17  O  2  S    0.018317  -0.104741  -0.000866   0.051693  -0.009746
   18  O  2  X    0.176336   0.102161   0.002530  -0.012107  -0.010228
   19  O  2  Y   -0.012230   0.174850  -0.004694  -0.136930   0.026748
   20  O  2  Z   -0.002708   0.006426   0.109480  -0.003616   0.015656
   21  O  2  S    0.041781  -0.192832   0.002398   0.119063  -0.019796
   22  O  2  X    0.099443   0.055969   0.001235  -0.009276  -0.006085
   23  O  2  Y   -0.002674   0.082789  -0.001657  -0.069322   0.014143
   24  O  2  Z   -0.001287   0.003612   0.058651  -0.001852   0.009107
   25  O  2 XX   -0.002197   0.002604  -0.000142  -0.001658   0.000073
   26  O  2 YY   -0.001357   0.012724  -0.000781  -0.009738   0.001712
   27  O  2 ZZ   -0.000545  -0.001546   0.000217  -0.000090  -0.000099
   28  O  2 XY    0.013078   0.009560   0.000227   0.000287  -0.000870
   29  O  2 XZ    0.000453   0.000209   0.000755   0.000042   0.000803
   30  O  2 YZ   -0.000217   0.000539   0.008613  -0.000321   0.001127
   31  C  3  S   -0.002940  -0.000014  -0.000049   0.033588  -0.003310
   32  C  3  S    0.000297   0.000030  -0.000502  -0.066005   0.006467
   33  C  3  X   -0.000125  -0.151851  -0.002075   0.000249   0.005160
   34  C  3  Y    0.270099  -0.000184   0.000843  -0.054680   0.007657
   35  C  3  Z    0.001424  -0.004731  -0.000235  -0.023056  -0.257713
   36  C  3  S    0.008022   0.000095   0.002491  -0.128423   0.013197
   37  C  3  X   -0.000071  -0.094302  -0.000511   0.000290   0.000586
   38  C  3  Y    0.124110  -0.000196   0.000042  -0.009729   0.002719
   39  C  3  Z    0.000296  -0.001620  -0.000100  -0.011602  -0.132786
   40  C  3 XX   -0.003534   0.000003  -0.000176   0.013569  -0.001227
   41  C  3 YY   -0.003101   0.000010   0.000016  -0.004970   0.000945
   42  C  3 ZZ    0.011899  -0.000019  -0.000023  -0.006263  -0.000000
   43  C  3 XY    0.000008   0.003599  -0.000012  -0.000013  -0.000592
   44  C  3 XZ   -0.000176  -0.000051   0.007869   0.000237  -0.000025
   45  C  3 YZ   -0.000447  -0.000321  -0.000017  -0.001293  -0.015048
   46  C  4  S   -0.006843   0.027510  -0.000052  -0.012426   0.002345
   47  C  4  S    0.016337  -0.065384   0.000169   0.023554  -0.005194
   48  C  4  X   -0.242135   0.183270   0.003070  -0.037628  -0.007766
   49  C  4  Y    0.037811   0.099392   0.001446   0.144010  -0.001430
   50  C  4  Z   -0.001355   0.005134  -0.144104   0.001033   0.013826
   51  C  4  S    0.006953  -0.068137  -0.002264   0.047884  -0.008237
   52  C  4  X   -0.072350   0.032269   0.001278   0.004867  -0.002163
   53  C  4  Y    0.018718   0.020261   0.001232   0.040623  -0.004317
   54  C  4  Z    0.000119   0.002419  -0.075441   0.001527   0.008938
   55  C  4 XX   -0.005531  -0.002873  -0.000094  -0.004225   0.001115
   56  C  4 YY    0.003534   0.006974   0.000308   0.002388  -0.000398
   57  C  4 ZZ    0.000293   0.003471  -0.000113   0.000703  -0.000142
   58  C  4 XY    0.007350  -0.001801   0.000025  -0.008327   0.000891
   59  C  4 XZ   -0.000329  -0.000054   0.006443  -0.001168  -0.011639
   60  C  4 YZ   -0.000011  -0.000297   0.000068  -0.000291  -0.000400
   61  C  5  S   -0.006879  -0.027454  -0.000527  -0.012456   0.000257
   62  C  5  S    0.016425   0.065273   0.001438   0.023673   0.000216
   63  C  5  X    0.242492   0.182752   0.004871   0.037108  -0.017801
   64  C  5  Y    0.037622  -0.099433  -0.003097   0.143703  -0.024604
   65  C  5  Z   -0.002097  -0.004825   0.144151   0.005717   0.013516
   66  C  5  S    0.007037   0.067917  -0.001445   0.047658  -0.002167
   67  C  5  X    0.072424   0.032275   0.001573  -0.004887  -0.002685
   68  C  5  Y    0.018661  -0.020288  -0.001084   0.040498  -0.003664
   69  C  5  Z   -0.000530  -0.001301   0.075486   0.002844   0.008837
   70  C  5 XX   -0.005534   0.002871   0.000281  -0.004235   0.000095
   71  C  5 YY    0.003524  -0.006983   0.000111   0.002409   0.000124
   72  C  5 ZZ    0.000295  -0.003456  -0.000417   0.000700  -0.000474
   73  C  5 XY   -0.007357  -0.001804  -0.000135   0.008324  -0.000869
   74  C  5 XZ   -0.000301  -0.000210   0.006445   0.001154   0.011638
   75  C  5 YZ    0.000083  -0.000252  -0.000087  -0.000004  -0.000439
   76  C  6  S    0.018310  -0.002063   0.000005   0.001890   0.000122
   77  C  6  S   -0.035790   0.004042  -0.000182  -0.005535  -0.000249
   78  C  6  X    0.122770   0.011047   0.005945   0.240163  -0.017270
   79  C  6  Y   -0.138502   0.232522  -0.000033   0.166903  -0.020189
   80  C  6  Z    0.004342   0.002457  -0.286494   0.029197   0.270867
   81  C  6  S   -0.049929  -0.013747   0.000236   0.006843   0.001157
   82  C  6  X    0.056405   0.014452   0.002812   0.125550  -0.007199
   83  C  6  Y   -0.062892   0.114738  -0.000715   0.079638  -0.010204
   84  C  6  Z    0.002536   0.001688  -0.129923   0.015011   0.130565
   85  C  6 XX    0.005202  -0.006444   0.000502  -0.005557   0.000396
   86  C  6 YY    0.000384  -0.002571   0.000876  -0.003911  -0.000706
   87  C  6 ZZ   -0.008131   0.011046  -0.001389   0.006863   0.000251
   88  C  6 XY   -0.006169   0.001060   0.000851  -0.012075  -0.000148
   89  C  6 XZ    0.000466  -0.000872  -0.003457  -0.000965   0.000000
   90  C  6 YZ    0.000112  -0.000715  -0.013826  -0.000019   0.015092
   91  C  7  S    0.018320   0.002037  -0.000048   0.001862  -0.000263
   92  C  7  S   -0.035811  -0.003990   0.000023  -0.005489   0.000649
   93  C  7  X   -0.122861   0.011298   0.002417  -0.239911   0.036541
   94  C  7  Y   -0.138874  -0.232079  -0.009158   0.166627  -0.012913
   95  C  7  Z   -0.001537  -0.007457   0.286640   0.030504   0.270165
   96  C  7  S   -0.049930   0.013753   0.000951   0.006961  -0.002242
   97  C  7  X   -0.056447   0.014564   0.001556  -0.125358   0.020005
   98  C  7  Y   -0.063066  -0.114481  -0.005288   0.079530  -0.005517
   99  C  7  Z   -0.001548  -0.002834   0.130045   0.013615   0.130356
  100  C  7 XX    0.005225   0.006439   0.000685  -0.005482   0.000820
  101  C  7 YY    0.000386   0.002535   0.001037  -0.003727   0.001423
  102  C  7 ZZ   -0.008161  -0.010997  -0.001721   0.006622  -0.001705
  103  C  7 XY    0.006170   0.001056  -0.000762   0.011902  -0.002410
  104  C  7 XZ    0.000183   0.000693  -0.003463  -0.000847   0.000165
  105  C  7 YZ   -0.000221  -0.001210   0.013797   0.002835   0.014797
  106  H  8  S    0.096008  -0.002457   0.000145  -0.066723  -0.132188
  107  H  8  S    0.065097  -0.002634  -0.000291  -0.039230  -0.097827
  108  H  9  S    0.099086   0.002280   0.000411  -0.043238   0.140828
  109  H  9  S    0.066956   0.002591  -0.000049  -0.022426   0.101609
  110  H 10  S   -0.065491   0.082141  -0.149146   0.060516   0.140024
  111  H 10  S   -0.040734   0.062360  -0.116759   0.044732   0.110067
  112  H 11  S   -0.068616   0.087042   0.142851   0.044360  -0.148349
  113  H 11  S   -0.042296   0.066513   0.112660   0.033121  -0.116044
  114  H 12  S   -0.023574  -0.084414   0.005773  -0.185283   0.007817
  115  H 12  S   -0.007212  -0.048111   0.004244  -0.132707   0.006388
  116  H 13  S   -0.023440   0.084189   0.010914  -0.183506   0.029782
  117  H 13  S   -0.007127   0.047962   0.007321  -0.131436   0.021365
  118  H 14  S   -0.065884  -0.076817  -0.152254   0.030442  -0.149256
  119  H 14  S   -0.041091  -0.058308  -0.119087   0.021161  -0.116860
  120  H 15  S   -0.068528  -0.091779   0.139457   0.072977   0.136004
  121  H 15  S   -0.042173  -0.070173   0.110042   0.055479   0.106599

                     21         22         23         24         25
                   -0.4111    -0.3848    -0.3754    -0.3438    -0.3421
                     A          A          A          A          A   
    1  O  1  S    0.045184   0.031692   0.016114   0.000109   0.000703
    2  O  1  S   -0.095107  -0.055425  -0.029201  -0.000131  -0.002636
    3  O  1  X    0.142598  -0.013331  -0.094722   0.008049  -0.003068
    4  O  1  Y    0.286287   0.293822   0.133727  -0.011839   0.017939
    5  O  1  Z   -0.010280  -0.009063  -0.010665  -0.338812   0.356699
    6  O  1  S   -0.183335  -0.165189  -0.089124  -0.000837   0.001525
    7  O  1  X    0.090209  -0.011509  -0.051554   0.005799  -0.001061
    8  O  1  Y    0.151248   0.158961   0.066189  -0.007711   0.012350
    9  O  1  Z   -0.006142  -0.004662  -0.006135  -0.215362   0.234952
   10  O  1 XX   -0.000516  -0.000033   0.001045   0.000167  -0.000324
   11  O  1 YY    0.018246   0.020059   0.008319  -0.001186   0.001148
   12  O  1 ZZ   -0.001593   0.001680   0.000469   0.001169  -0.001690
   13  O  1 XY    0.010197  -0.000935  -0.008496   0.000508  -0.000253
   14  O  1 XZ   -0.000385   0.000072   0.000156   0.000839   0.000970
   15  O  1 YZ   -0.000818  -0.000661  -0.000695  -0.021392   0.021430
   16  O  2  S   -0.044990   0.031646  -0.016077   0.000497  -0.000868
   17  O  2  S    0.094702  -0.055316   0.029145  -0.000698   0.002673
   18  O  2  X    0.142279   0.013833  -0.094935   0.002050   0.002201
   19  O  2  Y   -0.285356   0.293486  -0.133609  -0.011798  -0.019103
   20  O  2  Z   -0.014810   0.010994  -0.003901   0.353927   0.341706
   21  O  2  S    0.182434  -0.165073   0.088918  -0.004138   0.000689
   22  O  2  X    0.090045   0.011790  -0.051673   0.000560   0.001952
   23  O  2  Y   -0.150775   0.158745  -0.066153  -0.008572  -0.012424
   24  O  2  Z   -0.008620   0.005869  -0.002035   0.225276   0.225442
   25  O  2 XX    0.000551  -0.000027  -0.001047   0.000326   0.000164
   26  O  2 YY   -0.018181   0.020036  -0.008313  -0.001258  -0.001326
   27  O  2 ZZ    0.001569   0.001692  -0.000436   0.001457   0.001669
   28  O  2 XY    0.010158   0.000971  -0.008505   0.000231  -0.000032
   29  O  2 XZ    0.000453   0.000089  -0.000206   0.000834  -0.000984
   30  O  2 YZ   -0.001136   0.000796  -0.000225   0.022289   0.020482
   31  C  3  S   -0.000178   0.010915   0.000037   0.000187  -0.000079
   32  C  3  S    0.000359  -0.023437  -0.000072  -0.000716  -0.000237
   33  C  3  X   -0.025080  -0.000104   0.231092  -0.002708   0.004647
   34  C  3  Y    0.000236   0.192594   0.000077   0.004971   0.000688
   35  C  3  Z   -0.017449   0.000530   0.005750  -0.003248  -0.148685
   36  C  3  S    0.000680  -0.073343  -0.000170   0.003475   0.002887
   37  C  3  X    0.046880   0.000003   0.098539  -0.001268   0.006345
   38  C  3  Y    0.000109   0.098810   0.000029   0.002898  -0.002750
   39  C  3  Z   -0.007625   0.000939   0.002313  -0.001426  -0.066350
   40  C  3 XX   -0.000053  -0.011897  -0.000001  -0.000268   0.000231
   41  C  3 YY    0.000051   0.008843  -0.000000   0.000320   0.000375
   42  C  3 ZZ   -0.000018   0.009275   0.000016   0.000192  -0.000700
   43  C  3 XY    0.009232   0.000018  -0.010102   0.000077  -0.000059
   44  C  3 XZ   -0.000082  -0.000298  -0.000004   0.009207  -0.000206
   45  C  3 YZ   -0.001059  -0.000304   0.000204  -0.000414  -0.018896
   46  C  4  S   -0.018509   0.002084   0.001924  -0.000717   0.000341
   47  C  4  S    0.045235   0.001880  -0.000125   0.002140  -0.000544
   48  C  4  X    0.174619  -0.027548  -0.187261   0.004004  -0.004314
   49  C  4  Y   -0.209333  -0.225487  -0.097891  -0.005023   0.001466
   50  C  4  Z    0.005972   0.006511  -0.002999  -0.217364   0.193102
   51  C  4  S    0.072712  -0.024073  -0.028922   0.001234  -0.003575
   52  C  4  X    0.039253  -0.002001  -0.049175   0.000372  -0.003071
   53  C  4  Y    0.010838  -0.039426  -0.040846  -0.004742   0.007655
   54  C  4  Z    0.000219   0.001521  -0.001848  -0.131385   0.131619
   55  C  4 XX   -0.008896  -0.016789  -0.007817  -0.000045  -0.000037
   56  C  4 YY    0.004232   0.013901   0.006599   0.001190  -0.001046
   57  C  4 ZZ   -0.003923  -0.002563  -0.001215  -0.001074   0.000983
   58  C  4 XY   -0.001263   0.000734  -0.006298  -0.000426   0.000274
   59  C  4 XZ   -0.000567  -0.000225  -0.000306  -0.002247  -0.001133
   60  C  4 YZ   -0.000313  -0.000734  -0.000179   0.020265  -0.024710
   61  C  5  S    0.018631   0.002121  -0.001958  -0.000362  -0.000470
   62  C  5  S   -0.045491   0.001798   0.000199   0.001081   0.001438
   63  C  5  X    0.174061   0.027739  -0.187079   0.006141  -0.003392
   64  C  5  Y    0.208255  -0.225311   0.097635  -0.008075  -0.001150
   65  C  5  Z    0.002766  -0.007196   0.005179   0.225393   0.183607
   66  C  5  S   -0.073071  -0.024244   0.029081   0.001031  -0.000840
   67  C  5  X    0.039125   0.002094  -0.049152   0.002971   0.001773
   68  C  5  Y   -0.011208  -0.039517   0.040744  -0.008017  -0.007391
   69  C  5  Z   -0.001662  -0.001627   0.001916   0.136831   0.125767
   70  C  5 XX    0.008982  -0.016790   0.007797  -0.000214   0.000015
   71  C  5 YY   -0.004265   0.013904  -0.006564   0.001435   0.001239
   72  C  5 ZZ    0.003893  -0.002559   0.001192  -0.001199  -0.001141
   73  C  5 XY   -0.001366  -0.000711  -0.006285   0.000142  -0.000286
   74  C  5 XZ    0.000560   0.000129  -0.000109  -0.002228   0.001200
   75  C  5 YZ   -0.000259   0.000715  -0.000394  -0.021302  -0.023816
   76  C  6  S    0.000053   0.006311  -0.003067   0.000135  -0.000088
   77  C  6  S    0.001905  -0.014366   0.004388  -0.000193  -0.000001
   78  C  6  X   -0.150210   0.008994   0.208842  -0.001834  -0.000095
   79  C  6  Y    0.107848   0.180059   0.158539   0.001117  -0.003192
   80  C  6  Z    0.012296  -0.004418   0.002214   0.129136  -0.083112
   81  C  6  S   -0.043960  -0.026954   0.031560  -0.000707  -0.000710
   82  C  6  X   -0.098742   0.002205   0.115076   0.001240  -0.002780
   83  C  6  Y    0.057407   0.083437   0.069317   0.003049  -0.004333
   84  C  6  Z    0.005024  -0.001615   0.002081   0.053234  -0.036861
   85  C  6 XX   -0.005390  -0.010643  -0.011712  -0.000106   0.000133
   86  C  6 YY    0.003214   0.004281   0.001797  -0.000406   0.000266
   87  C  6 ZZ    0.006243   0.008461   0.007575   0.000538  -0.000524
   88  C  6 XY    0.004864  -0.004328  -0.013987  -0.000622   0.000532
   89  C  6 XZ   -0.000271  -0.000752  -0.001110  -0.004745   0.003143
   90  C  6 YZ    0.000905  -0.001163  -0.001467   0.012614  -0.010011
   91  C  7  S   -0.000058   0.006301   0.003069  -0.000031   0.000210
   92  C  7  S   -0.001890  -0.014346  -0.004386   0.000110  -0.000454
   93  C  7  X   -0.147378  -0.009227   0.208494  -0.005164   0.000863
   94  C  7  Y   -0.109746   0.180108  -0.158229   0.003535   0.001973
   95  C  7  Z    0.016226   0.005882  -0.006998  -0.132593  -0.077630
   96  C  7  S    0.043919  -0.026871  -0.031576   0.000988   0.000119
   97  C  7  X   -0.097319  -0.002380   0.114892  -0.005468  -0.002628
   98  C  7  Y   -0.058295   0.083473  -0.069152   0.004153   0.004877
   99  C  7  Z    0.007812   0.002346  -0.002745  -0.054781  -0.034575
  100  C  7 XX    0.005476  -0.010659   0.011702  -0.000541  -0.000093
  101  C  7 YY   -0.003180   0.004284  -0.001810  -0.000354  -0.000314
  102  C  7 ZZ   -0.006341   0.008470  -0.007553   0.000860   0.000498
  103  C  7 XY    0.004734   0.004362  -0.013973   0.000744   0.000181
  104  C  7 XZ    0.000022  -0.000365   0.000635  -0.004874  -0.002919
  105  C  7 YZ    0.000878   0.001182  -0.001675  -0.013012  -0.009482
  106  H  8  S   -0.009399   0.074903   0.002466  -0.000381  -0.105987
  107  H  8  S   -0.007296   0.080496   0.001878  -0.001310  -0.126985
  108  H  9  S    0.009676   0.078726  -0.002342   0.004269   0.104071
  109  H  9  S    0.007297   0.085092  -0.001703   0.004297   0.126668
  110  H 10  S    0.055650   0.062508   0.055961   0.085511  -0.060348
  111  H 10  S    0.047015   0.061964   0.049390   0.091385  -0.070476
  112  H 11  S    0.040024   0.074884   0.067919  -0.081257   0.055930
  113  H 11  S    0.034889   0.074266   0.060929  -0.088853   0.068426
  114  H 12  S    0.030528  -0.087481  -0.177906  -0.004125   0.004178
  115  H 12  S    0.009356  -0.078644  -0.153713  -0.001699   0.000953
  116  H 13  S   -0.028419  -0.087635   0.177444  -0.007970  -0.002271
  117  H 13  S   -0.007784  -0.078749   0.153360  -0.004948   0.001274
  118  H 14  S   -0.056921   0.061697  -0.052351   0.089027   0.056181
  119  H 14  S   -0.047819   0.061222  -0.046130   0.095219   0.065606
  120  H 15  S   -0.040073   0.075682  -0.071112  -0.082339  -0.053066
  121  H 15  S   -0.035121   0.074977  -0.063819  -0.090500  -0.065648

                     26         27         28         29         30
                   -0.2582    -0.2202    -0.0150    -0.0129     0.0687
                     A          A          A          A          A   
    1  O  1  S   -0.005247  -0.008171  -0.000148   0.000548  -0.018581
    2  O  1  S    0.011775   0.014795   0.002029  -0.001003   0.027093
    3  O  1  X   -0.408362   0.427807   0.006257  -0.006748   0.009920
    4  O  1  Y   -0.013682  -0.049573  -0.007496   0.006362   0.052625
    5  O  1  Z   -0.007816   0.007450  -0.312719   0.283895   0.008733
    6  O  1  S    0.027440   0.073828  -0.006072  -0.005914   0.231923
    7  O  1  X   -0.280890   0.290721   0.006637  -0.005336   0.016285
    8  O  1  Y   -0.001507  -0.008623  -0.009974   0.003918   0.123149
    9  O  1  Z   -0.004948   0.004982  -0.318188   0.276278   0.005464
   10  O  1 XX   -0.002691  -0.005008   0.000660   0.000117  -0.009280
   11  O  1 YY    0.000286   0.000426   0.000469  -0.000116   0.001263
   12  O  1 ZZ    0.000006   0.000027   0.000201   0.000356  -0.010256
   13  O  1 XY   -0.012229   0.014811   0.000009  -0.000101   0.000138
   14  O  1 XZ    0.000511  -0.000206   0.000786  -0.000383  -0.000049
   15  O  1 YZ   -0.000379  -0.000026  -0.000177  -0.001837  -0.000606
   16  O  2  S   -0.005240   0.008166  -0.000170  -0.000310  -0.018600
[...]
              4  O  1  Y      0.83888     0.78564
              5  O  1  Z      0.90629     0.84208
              6  O  1  S      1.04046     0.47368
              7  O  1  X      0.64083     0.68227
              8  O  1  Y      0.51035     0.56639
              9  O  1  Z      0.47340     0.55177
             10  O  1 XX     -0.01333     0.16972
             11  O  1 YY     -0.00551     0.17605
             12  O  1 ZZ     -0.00201     0.18245
             13  O  1 XY      0.00279     0.00524
             14  O  1 XZ      0.00571     0.01162
             15  O  1 YZ      0.00762     0.01396
             16  O  2  S      1.99251     1.97644
             17  O  2  S      0.91139     0.71896
             18  O  2  X      1.07547     1.03156
             19  O  2  Y      0.85425     0.80289
             20  O  2  Z      0.93395     0.86875
             21  O  2  S      1.03186     0.47462
             22  O  2  X      0.64469     0.67251
             23  O  2  Y      0.51834     0.57081
             24  O  2  Z      0.47048     0.55336
             25  O  2 XX     -0.01316     0.16824
             26  O  2 YY     -0.00558     0.17602
             27  O  2 ZZ     -0.00207     0.18400
             28  O  2 XY      0.00193     0.00393
             29  O  2 XZ      0.00627     0.01146
             30  O  2 YZ      0.00861     0.01529
             31  C  3  S      1.99218     1.97712
             32  C  3  S      0.68088     0.37018
             33  C  3  X      0.70586     0.63866
             34  C  3  Y      0.70606     0.63338
             35  C  3  Z      0.72353     0.64697
             36  C  3  S      0.64020     0.31640
             37  C  3  X      0.29243     0.39075
             38  C  3  Y      0.33795     0.43917
             39  C  3  Z      0.33749     0.43322
             40  C  3 XX     -0.00290     0.14835
             41  C  3 YY      0.00314     0.15553
             42  C  3 ZZ      0.00350     0.15502
             43  C  3 XY      0.00612     0.01126
             44  C  3 XZ      0.00907     0.01703
             45  C  3 YZ      0.00600     0.01063
             46  C  4  S      1.99217     1.97223
             47  C  4  S      0.73511     0.36732
             48  C  4  X      0.73839     0.63803
             49  C  4  Y      0.53325     0.47211
             50  C  4  Z      0.65732     0.57523
             51  C  4  S      0.40760     0.28091
             52  C  4  X      0.12402     0.32242
             53  C  4  Y      0.20358     0.31401
             54  C  4  Z      0.10917     0.28958
             55  C  4 XX      0.00127     0.17039
             56  C  4 YY     -0.01496     0.13138
             57  C  4 ZZ      0.00339     0.17500
             58  C  4 XY      0.01299     0.02771
             59  C  4 XZ      0.02612     0.05845
             60  C  4 YZ      0.01486     0.03126
             61  C  5  S      1.99217     1.97223
             62  C  5  S      0.73496     0.36690
             63  C  5  X      0.68056     0.58863
             64  C  5  Y      0.54820     0.48529
             65  C  5  Z      0.70611     0.61654
             66  C  5  S      0.40115     0.27932
             67  C  5  X      0.15123     0.32453
             68  C  5  Y      0.19842     0.31432
             69  C  5  Z      0.07873     0.28394
             70  C  5 XX     -0.00704     0.14906
             71  C  5 YY     -0.01427     0.13297
             72  C  5 ZZ      0.00900     0.19204
             73  C  5 XY      0.01235     0.02762
             74  C  5 XZ      0.02676     0.05906
             75  C  5 YZ      0.01640     0.03294
             76  C  6  S      1.99189     1.97871
             77  C  6  S      0.67958     0.36758
             78  C  6  X      0.69472     0.62861
             79  C  6  Y      0.71893     0.64222
             80  C  6  Z      0.73192     0.65670
             81  C  6  S      0.65291     0.33310
             82  C  6  X      0.29073     0.40242
             83  C  6  Y      0.36284     0.48611
             84  C  6  Z      0.37747     0.48243
             85  C  6 XX     -0.00144     0.15086
             86  C  6 YY      0.00679     0.15646
             87  C  6 ZZ      0.00585     0.15494
             88  C  6 XY      0.00365     0.00763
             89  C  6 XZ      0.00644     0.01257
             90  C  6 YZ      0.00583     0.01013
             91  C  7  S      1.99190     1.97869
             92  C  7  S      0.67849     0.36713
             93  C  7  X      0.71344     0.64169
             94  C  7  Y      0.71863     0.64262
             95  C  7  Z      0.71914     0.64947
             96  C  7  S      0.65015     0.33267
             97  C  7  X      0.32845     0.44693
             98  C  7  Y      0.36150     0.48682
             99  C  7  Z      0.34755     0.44033
            100  C  7 XX      0.00102     0.15144
            101  C  7 YY      0.00633     0.15529
            102  C  7 ZZ      0.00002     0.15010
            103  C  7 XY      0.00636     0.01211
            104  C  7 XZ      0.00918     0.01592
            105  C  7 YZ      0.00420     0.00801
            106  H  8  S      0.52378     0.48509
            107  H  8  S      0.29990     0.34235
            108  H  9  S      0.51787     0.47777
            109  H  9  S      0.30017     0.34187
            110  H 10  S      0.51745     0.47602
            111  H 10  S      0.29883     0.34552
            112  H 11  S      0.51952     0.47959
            113  H 11  S      0.30881     0.35044
            114  H 12  S      0.52071     0.47907
            115  H 12  S      0.29455     0.34477
            116  H 13  S      0.52211     0.48054
            117  H 13  S      0.30293     0.34814
            118  H 14  S      0.51144     0.46975
            119  H 14  S      0.27975     0.33984
            120  H 15  S      0.52054     0.48023
            121  H 15  S      0.31979     0.35428

          ----- MULLIKEN ATOMIC OVERLAP POPULATIONS -----
          (OFF-DIAGONAL ELEMENTS NEED TO BE MULTIPLIED BY 2)

             1           2           3           4           5

    1    7.9879989
    2   -0.0000346   7.9702572
    3   -0.0926401  -0.0859652   5.6787952
    4    0.5851522  -0.0001045   0.2577483   4.4736756
    5    0.0023701   0.6119207   0.2699456  -0.0109275   4.4290028
    6   -0.0751713  -0.0001082  -0.1283199   0.3419613   0.0018909
    7   -0.0084714  -0.0835204  -0.1329481  -0.0003411   0.3282945
    8    0.0028791   0.0063596   0.3286120  -0.0193629  -0.0236519
    9   -0.0011863   0.0022145   0.3243520  -0.0185928  -0.0135251
   10    0.0009709   0.0000475   0.0032169  -0.0205829  -0.0003984
   11    0.0015568   0.0000003   0.0049803  -0.0235452   0.0002563
   12    0.0048875  -0.0000001   0.0061750  -0.0219413  -0.0000790
   13    0.0002494   0.0049318   0.0060478   0.0000833  -0.0211759
   14    0.0191637   0.0012491  -0.0014803   0.0014854  -0.0189950
   15    0.0001876   0.0017046   0.0029983  -0.0004257  -0.0202045

             6           7           8           9          10

    6    5.3289007
    7   -0.0002318   5.3965746
    8    0.0007853   0.0063768   0.5463004
    9    0.0010873   0.0024311  -0.0248133   0.5444516
   10    0.3525402   0.0000088   0.0011076   0.0001339   0.5255262
   11    0.3518786  -0.0000035  -0.0006639   0.0001310  -0.0261068
   12    0.3524539   0.0000079   0.0001074  -0.0002077  -0.0201725
   13    0.0000063   0.3438406  -0.0001615  -0.0000838  -0.0000001
   14    0.0004161   0.3395320  -0.0000369  -0.0000905  -0.0000112
   15    0.0000016   0.3448238  -0.0001660   0.0017469  -0.0000004

            11          12          13          14          15

   11    0.5424168
   12   -0.0225694   0.5166109
   13   -0.0000001  -0.0000001   0.5300473
   14   -0.0000072  -0.0000073  -0.0159771   0.4896767
   15    0.0000002  -0.0000001  -0.0227721  -0.0237307   0.5561706

          TOTAL MULLIKEN AND LOWDIN ATOMIC POPULATIONS
       ATOM         MULL.POP.    CHARGE          LOW.POP.     CHARGE
    1 O             8.427913   -0.427913         8.231135   -0.231135
    2 O             8.428952   -0.428952         8.228827   -0.228827
    3 C             6.441518   -0.441518         6.343657   -0.343657
    4 C             5.544282    0.455718         5.826021    0.173979
    5 C             5.534724    0.465276         5.825408    0.174592
    6 C             6.528091   -0.528091         6.470469   -0.470469
    7 C             6.536374   -0.536374         6.479213   -0.479213
    8 H             0.823672    0.176328         0.827436    0.172564
    9 H             0.818049    0.181951         0.819643    0.180357
   10 H             0.816280    0.183720         0.821541    0.178459
   11 H             0.828324    0.171676         0.830029    0.169971
   12 H             0.815265    0.184735         0.823849    0.176151
   13 H             0.825036    0.174964         0.828675    0.171325
   14 H             0.791187    0.208813         0.809589    0.190411
   15 H             0.840334    0.159666         0.834508    0.165492

          -------------------------------
          BOND ORDER AND VALENCE ANALYSIS     BOND ORDER THRESHOLD=0.050
          -------------------------------

                   BOND                       BOND                       BOND
  ATOM PAIR DIST  ORDER      ATOM PAIR DIST  ORDER      ATOM PAIR DIST  ORDER
    1   4  1.216  1.916        2   5  1.215  1.942        3   4  1.539  0.911
    3   5  1.535  0.924        3   8  1.094  0.923        3   9  1.100  0.906
    4   6  1.516  0.975        5   7  1.512  0.978        6  10  1.098  0.925
    6  11  1.098  0.930        6  12  1.092  0.939        7  13  1.092  0.939
    7  14  1.096  0.901        7  15  1.098  0.930

                       TOTAL       BONDED        FREE
      ATOM            VALENCE     VALENCE     VALENCE
    1 O                 2.055       2.055      -0.000
    2 O                 2.061       2.061       0.000
    3 C                 3.681       3.681       0.000
    4 C                 3.824       3.824       0.000
    5 C                 3.851       3.851      -0.000
    6 C                 3.778       3.778       0.000
    7 C                 3.752       3.752      -0.000
    8 H                 0.936       0.936      -0.000
    9 H                 0.926       0.926      -0.000
   10 H                 0.927       0.927      -0.000
   11 H                 0.929       0.929       0.000
   12 H                 0.936       0.936      -0.000
   13 H                 0.939       0.939       0.000
   14 H                 0.938       0.938       0.000
   15 H                 0.933       0.933       0.000

          ---------------------
          ELECTROSTATIC MOMENTS
          ---------------------

 POINT   1           X           Y           Z (BOHR)    CHARGE
                 0.294837    0.666100    0.146967        0.00 (A.U.)
         DX          DY          DZ         /D/  (DEBYE)
    -1.541854    2.539909   -0.381966    2.995722
 ...... END OF PROPERTY EVALUATION ......
 STEP CPU TIME =     0.04 TOTAL CPU TIME =       2893.3 (     48.2 MIN)
 TOTAL WALL CLOCK TIME=       2909.8 SECONDS, CPU UTILIZATION IS    99.43%
  $VIB   
          IVIB=   0 IATOM=   0 ICOORD=   0 E=     -345.5940414646
  1.085065657E-04-3.598824598E-04-2.648752037E-04 2.730759727E-05-3.115868213E-04
  1.130651576E-05-5.677098789E-05 1.350967137E-04 1.399906679E-04 6.672437815E-05
  2.746809438E-04 2.238641301E-04 1.042448139E-04 2.118539994E-04-3.707601506E-05
 -9.621667654E-05 1.395830292E-04 5.698709532E-05 1.808141522E-04 8.645427211E-05
  1.677913242E-04 5.813487139E-05-3.801409817E-05 1.422165559E-04 3.309710269E-05
 -8.005528319E-05 6.932045671E-05 4.283582065E-06-7.604101630E-05 6.968483219E-05
 -1.555054978E-04 9.316296843E-05-1.342471514E-04-1.012560758E-04-8.985341743E-05
 -1.913004176E-04-1.688127469E-04 1.131032805E-04-5.289658862E-05-1.204135561E-04
 -1.641488020E-04 4.288315156E-05 1.158624776E-04 6.564669108E-05-2.436493532E-04
 -1.541854228E+00 2.539908610E+00-3.819662447E-01
 ......END OF GEOMETRY SEARCH......
 STEP CPU TIME =     0.00 TOTAL CPU TIME =       2893.3 (     48.2 MIN)
 TOTAL WALL CLOCK TIME=       2909.8 SECONDS, CPU UTILIZATION IS    99.43%
               1156660  WORDS OF DYNAMIC MEMORY USED
 EXECUTION OF GAMESS TERMINATED NORMALLY Thu Apr 30 08:14:15 2026
 DDI: 263640 bytes (0.3 MB / 0 MWords) used by master data server.

 ----------------------------------------
 CPU timing information for all processes
 ========================================
 0: 2881.937 + 11.367 = 2893.305
 ----------------------------------------
 ddikick.x: exited gracefully.
----- accounting info -----
Files used on the master node chemcompute-node-0.novalocal were:
-rw-r--r--. 1 chemcomp chemcomp     1257 Apr 30 07:25 /scratch/1118336/1594898.F05
-rw-rw-r--. 1 chemcomp chemcomp 57344000 Apr 30 08:14 /scratch/1118336/1594898.F10
-rw-rw-r--. 1 chemcomp chemcomp  7462424 Apr 30 08:13 /scratch/1118336/1594898.F22
Thu Apr 30 08:14:18 UTC 2026
0.086u 0.041s 48:33.27 0.0%	0+0k 8+208io 0pf+0w
Finishing Up...
Wrote IR file to: Gamess.ir
vibramans not found, parsing from GAMESS output
Wrote Raman file to: Gamess.raman
Wrote UV-Vis file to: Gamess.uvvis
Wrote Electronic Energy file to: Gamess.energy
Wrote Geometry Optimization file to: Gamess.molden
Wrote Atomic Charges file to: Gamess.charges
Wrote Dipole Moment file to: Gamess.moments
Wrote all Results to: Gamess.cclib
reading wave-function from mo.molden
Loading data from molden type file mo.molden

Converting the regular grid to a vector grid containing 2.04e+05 grid points...

Starting the calculation of the molecular orbitals...
The grid has been separated into 21 slices each having 1.00e+04 grid points.
The calculation will be carried out using only one process.

	The number of subprocesses can be changed with -p


There are 121 contracted Cartesian AOs and 37 MOs to be calculated.
	Finished 10 % (4 slices in 0.454 s)
	Finished 20 % (2 slices in 0.174 s)
	Finished 30 % (2 slices in 0.172 s)
	Finished 40 % (2 slices in 0.170 s)
	Finished 50 % (2 slices in 0.172 s)
	Finished 60 % (2 slices in 0.172 s)
	Finished 70 % (2 slices in 0.175 s)
	Finished 80 % (2 slices in 0.179 s)
	Finished 90 % (2 slices in 0.184 s)
Converting the output from a vector grid to a regular grid...

Norm of the MOs:
	0.790096	MO 1.A (Occ = 2.00, E = -19.1508 E_h)
	0.961402	MO 2.A (Occ = 2.00, E = -19.1381 E_h)
	1.020682	MO 3.A (Occ = 2.00, E = -10.2935 E_h)
	0.930113	MO 4.A (Occ = 2.00, E = -10.2797 E_h)
	1.031810	MO 5.A (Occ = 2.00, E = -10.2054 E_h)
	0.966948	MO 6.A (Occ = 2.00, E = -10.1991 E_h)
	0.855445	MO 7.A (Occ = 2.00, E = -10.1815 E_h)
	0.990430	MO 8.A (Occ = 2.00, E = -1.0519 E_h)
	0.995843	MO 9.A (Occ = 2.00, E = -1.0377 E_h)
	0.999061	MO 10.A (Occ = 2.00, E = -0.7890 E_h)
	0.997141	MO 11.A (Occ = 2.00, E = -0.7495 E_h)
	0.997559	MO 12.A (Occ = 2.00, E = -0.7106 E_h)
	0.999168	MO 13.A (Occ = 2.00, E = -0.5642 E_h)
	0.999538	MO 14.A (Occ = 2.00, E = -0.5201 E_h)
	1.000294	MO 15.A (Occ = 2.00, E = -0.4801 E_h)
	1.000196	MO 16.A (Occ = 2.00, E = -0.4775 E_h)
	1.000363	MO 17.A (Occ = 2.00, E = -0.4598 E_h)
	1.000342	MO 18.A (Occ = 2.00, E = -0.4364 E_h)
	1.000477	MO 19.A (Occ = 2.00, E = -0.4286 E_h)
	0.999841	MO 20.A (Occ = 2.00, E = -0.4253 E_h)
	1.000500	MO 21.A (Occ = 2.00, E = -0.3992 E_h)
	1.000418	MO 22.A (Occ = 2.00, E = -0.3923 E_h)
	1.000042	MO 23.A (Occ = 2.00, E = -0.3740 E_h)
	1.000084	MO 24.A (Occ = 2.00, E = -0.3594 E_h)
	0.999559	MO 25.A (Occ = 2.00, E = -0.3526 E_h)
	1.001068	MO 26.A (Occ = 2.00, E = -0.2601 E_h)
	1.000658	MO 27.A (Occ = 2.00, E = -0.2441 E_h)
	0.999943	MO 28.A (Occ = 0.00, E = -0.0263 E_h)
	0.999698	MO 29.A (Occ = 0.00, E = -0.0121 E_h)
	0.999320	MO 30.A (Occ = 0.00, E = +0.0887 E_h)
	0.999228	MO 31.A (Occ = 0.00, E = +0.1164 E_h)
	0.999462	MO 32.A (Occ = 0.00, E = +0.1376 E_h)
	0.999169	MO 33.A (Occ = 0.00, E = +0.1455 E_h)
	0.999429	MO 34.A (Occ = 0.00, E = +0.1517 E_h)
	0.999066	MO 35.A (Occ = 0.00, E = +0.1652 E_h)
	0.999949	MO 36.A (Occ = 0.00, E = +0.1730 E_h)
	0.999994	MO 37.A (Occ = 0.00, E = +0.1829 E_h)
[done] wrote 38 entries to mo_cutoffs.json
total density…
JmolData using command options ["-n", "-s", "rho.spt"]
{noDisplay=true, noConsole=true, exit=true, headlessMaxTimeMs=60000, JmolData=true, isDataOnly=true}
Jmol version 16.3.31  2025-07-21 14:08
Operating headless display=null nographicsallowed=true
Executing script from file: rho.spt
jmolapp evalfilearsgs  rho.spt
Executing script: ;exitJmol;
FileManager opening file /data/slurm/159/1594898/rho.spt

FileManager.getAtomSetCollectionFromFile(/data/slurm/159/1594898/Gamess.stdout)
FileManager opening file /data/slurm/159/1594898/Gamess.stdout
The Resolver thinks GamessUS
          *         GAMESS VERSION = 30 JUN 2019 (R1)          *

          1 ELECTRON INTEGRALS
 ...... END OF ONE-ELECTRON INTEGRALS ......
121 molecular orbitals read in model 2
Energy for model 2 = -345.5798814611
Molecular dipole for model 2 = {0.0025329997, 5.148588, 0.015603}
37 molecular orbitals read in model 80
Energy for model 80 = -345.5940414646
Molecular dipole for model 80 = {-1.541854, 2.539909, -0.381966}
Time for openFile(/data/slurm/159/1594898/Gamess.stdout): 268 ms
reading 1200 atoms
ModelSet: haveSymmetry:false haveUnitcells:false haveFractionalCoord:false
80 models in this collection. Use getProperty "modelInfo" or getProperty "auxiliaryInfo" to inspect them.
Default Van der Waals type for model set to Babel
1200 atoms created
ModelSet: autobonding; use  autobond=false  to not generate bonds automatically
Time for creating model: 45 ms
80 models
121 molecular orbitals in model 1.2
37 molecular orbitals in model 1.80

MO 29
Molecular orbital #1/121 6-31G(d) B3LYP RHF OPTIMIZE
15 atoms will be used in the surface calculation
Maximum number of voxels for index=0 exceeded (121) -- set to 80
Maximum number of voxels for index=1 exceeded (84) -- set to 80
generating isosurface data for MO using cutoff 1.8105331E-4
QuantumCalculation:
 origin = [-6.0235, -4.2409, -3.5068]
 range (Ang) = [12.2008095, 8.408506, 7.1297183]
 steps (Bohr)= [0.28820083, 0.19862114, 0.18976259]
 origin(Bohr)= [-11.382705, -8.014097, -6.6268563]
 steps = [0.28820083, 0.19862114, 0.18976259]
 counts= 80 80 71
calculation type: 6-31G(d) B3LYP RHF OPTIMIZE OK.
boundbox corners {-4.2752423 -2.4493182 -1.7824924} {4.275924 2.3824158 1.8260231}
rho created  with cutoff=1.8105331E-4; isosurface count: 1
isosurface full data range -1.0 to 1.0 with color scheme spanning -1.0 to 1.0
#created by Jmol Version 16.3.31  2025-07-21 14:08 on Thu Apr 30 08:14:24 UTC 2026
MO
calculation type: 6-31G(d) B3LYP RHF OPTIMIZE

isosurface resolution for axis 1 set to 6.556942 points/Angstrom; 80 voxels
isosurface resolution for axis 2 set to 9.514174 points/Angstrom; 80 voxels
isosurface resolution for axis 3 set to 9.958318 points/Angstrom; 71 voxels
454400 voxels total

1 id:rho; model:1.2; vertices:11684; polygons:23364; visible:true; dataRange:[-1.0, 1.0, -1.0, 1.0]; title:isosurface rho cutoff 0.013455604808992327 mo density;

<jvxlSurfaceInfo 
  isModelConnected="true" 
  cutoff="1.8105331E-4" 
  isCutoffAbsolute="true" 
  pointsPerAngstrom="6.556942" 
  nBytesData="41234" 
  isXLowToHigh="false" 
  nSurfaceInts="3774" 
  nBytesUncompressedEdgeData="11683" 
  nBytesUncompressedColorData="25600" 
  precisionColor="true" 
  bicolorMap="true" 
  colorNegative="[xff0000]" 
  colorPositive="[x0000ff]" 
  color="[xffa500]" 
  translucency="0.0" 
  rendering="fill noMesh noDots notFrontOnly frontlit" 
  slabbable="true" 
  xyzMin="{-4.2752423 -2.4493182 -1.7824924}" 
  xyzMax="{4.275924 2.3824158 1.8260231}" 
  approximateCompressionRatio="not calculated" 
  jmolVersion="Jmol 16.3.31  2025-07-21 14:08">
</jvxlSurfaceInfo>


chemcompute.org
{'UTCtimestamp': '2026-04-30T08:14:35.811871', 'cluster': 'jetstream2', 'clusterJobNumber': '1118336', 'status': 'COMPLETE', 'nodeList': 'chemcompute-node-0'}
1118336
