----- GAMESS execution script 'rungms' -----
This job is running on host chemcompute-node-0.novalocal
under operating system Linux at Thu Apr 30 07:16:26 UTC 2026
SLURM has assigned the following compute nodes to this run:
Available scratch disk space (Kbyte units) at beginning of the job is
Filesystem     1K-blocks     Used Available Use% Mounted on
/dev/sda4       61775852 12456868  49318984  21% /
GAMESS temporary binary files will be written to /scratch/1118334
GAMESS supplementary output files will be written to /data/slurm/159/1594896
Copying input file 1594896.inp to your run's scratch directory...
The generated host list is
chemcompute-node-0.novalocal

 Distributed Data Interface kickoff program.
 Initiating 1 compute processes on 1 nodes to run the following command:
 /data/gamess-2019R1-avx2-ddi/gamess.00.x 1594896 

          ******************************************************
          *         GAMESS VERSION = 30 JUN 2019 (R1)          *
          *             FROM IOWA STATE UNIVERSITY             *
          * M.W.SCHMIDT, K.K.BALDRIDGE, J.A.BOATZ, S.T.ELBERT, *
          *   M.S.GORDON, J.H.JENSEN, S.KOSEKI, N.MATSUNAGA,   *
          *          K.A.NGUYEN, S.J.SU, T.L.WINDUS,           *
          *       TOGETHER WITH M.DUPUIS, J.A.MONTGOMERY       *
          *         J.COMPUT.CHEM.  14, 1347-1363(1993)        *
          **************** 64 BIT INTEL VERSION ****************

  SINCE 1993, STUDENTS AND POSTDOCS WORKING AT IOWA STATE UNIVERSITY
  AND ALSO IN THEIR VARIOUS JOBS AFTER LEAVING ISU HAVE MADE IMPORTANT
  CONTRIBUTIONS TO THE CODE:
     IVANA ADAMOVIC, CHRISTINE AIKENS, YURI ALEXEEV, POOJA ARORA,
     ANDREY ASADCHEV, ROB BELL, PRADIPTA BANDYOPADHYAY, JONATHAN BENTZ,
     COLLEEN BERTONI, BRETT BODE, KURT BRORSEN, CALEB CARLIN, GALINA CHABAN,
     WEI CHEN, CHEOL HO CHOI, PAUL DAY, ALBERT DEFUSCO, NUWAN DESILVA,
     TIM DUDLEY, DMITRI FEDOROV, ALEX FINDLATER, GRAHAM FLETCHER, 
     MARK FREITAG, KURT GLAESEMANN, ANASTASIA GUNINA,
     DAN KEMP, GRANT MERRILL, NORIYUKI MINEZAWA, JONATHAN MULLIN,
     TAKESHI NAGATA, SEAN NEDD, HEATHER NETZLOFF, BOSILJKA NJEGIC, RYAN OLSON,
     MIKE PAK, BUU PHAM,
     SPENCER PRUITT, LUKE ROSKOP, JIM SHOEMAKER, LYUDMILA SLIPCHENKO,
     TONY SMITH, SAROM SOK LEANG, JIE SONG, TETSUYA TAKETSUGU, SIMON WEBB,
     PENG XU, SOOHAENG YOO, FEDERICO ZAHARIEV

  ADDITIONAL CODE HAS BEEN PROVIDED BY COLLABORATORS IN OTHER GROUPS:
     IOWA STATE UNIVERSITY:
          JOE IVANIC, AARON WEST, LAIMUTIS BYTAUTAS, KLAUS RUEDENBERG
     UNIVERSITY OF TOKYO: KIMIHIKO HIRAO, TAKAHITO NAKAJIMA,
          TAKAO TSUNEDA, MUNEAKI KAMIYA, SUSUMU YANAGISAWA,
          KIYOSHI YAGI, MAHITO CHIBA, SEIKEN TOKURA, NAOAKI KAWAKAMI
     UNIVERSITY OF AARHUS: FRANK JENSEN
     UNIVERSITY OF IOWA: VISVALDAS KAIRYS, HUI LI
     NATIONAL INST. OF STANDARDS AND TECHNOLOGY: WALT STEVENS, DAVID GARMER
     UNIVERSITY OF PISA: BENEDETTA MENNUCCI, JACOPO TOMASI
     UNIVERSITY OF MEMPHIS: HENRY KURTZ, PRAKASHAN KORAMBATH
     UNIVERSITY OF ALBERTA: TOBY ZENG, MARIUSZ KLOBUKOWSKI
     UNIVERSITY OF NEW ENGLAND: MARK SPACKMAN
     MIE UNIVERSITY: HIROAKI UMEDA
     NAT. INST. OF ADVANCED INDUSTRIAL SCIENCE AND TECHNOLOGY: KAZUO KITAURA
     MICHIGAN STATE UNIVERSITY:
          KAROL KOWALSKI, MARTA WLOCH, JEFFREY GOUR, JESSE LUTZ,
          WEI LI, JUN SHEN, J. EMILIANO DEUSTUA, PIOTR PIECUCH
     UNIVERSITY OF MINNESOTA:
          YINAN SHU
     UNIVERSITY OF SILESIA: MONIKA MUSIAL, STANISLAW KUCHARSKI
     FACULTES UNIVERSITAIRES NOTRE-DAME DE LA PAIX:
          OLIVIER QUINET, BENOIT CHAMPAGNE
     UNIVERSITY OF CALIFORNIA - SANTA BARBARA: BERNARD KIRTMAN
     INSTITUTE FOR MOLECULAR SCIENCE:
          KAZUYA ISHIMURA, MICHIO KATOUDA, AND SHIGERU NAGASE
     UNIVERSITY OF NOTRE DAME: ANNA POMOGAEVA, DAN CHIPMAN
     KYUSHU UNIVERSITY:
          HARUYUKI NAKANO,
          FENG LONG GU, JACEK KORCHOWIEC, MARCIN MAKOWSKI, AND YURIKO AOKI,
          HIROTOSHI MORI AND EISAKU MIYOSHI
     PENNSYLVANIA STATE UNIVERSITY:
          TZVETELIN IORDANOV, CHET SWALINA, JONATHAN SKONE,
          SHARON HAMMES-SCHIFFER
     WASEDA UNIVERSITY:
          MASATO KOBAYASHI, TOMOKO AKAMA, TSUGUKI TOUMA,
          TAKESHI YOSHIKAWA, YASUHIRO IKABATA, JUNJI SEINO,
          YUYA NAKAJIMA, HIROMI NAKAI
     NANJING UNIVERSITY: SHUHUA LI
     UNIVERSITY OF NEBRASKA:
          PEIFENG SU, DEJUN SI, NANDUN THELLAMUREGE, YALI WANG, HUI LI
     UNIVERSITY OF ZURICH: ROBERTO PEVERATI, KIM BALDRIDGE
     N. COPERNICUS UNIVERSITY AND JACKSON STATE UNIVERSITY:
          MARIA BARYSZ
     UNIVERSITY OF COPENHAGEN: Jimmy Kromann, CASPER STEINMANN
     TOKYO INSTITUTE OF TECHNOLOGY: HIROYA NAKATA
     NAGOYA UNIVERSITY: YOSHIO NISHIMOTO, STEPHAN IRLE
     MOSCOW STATE UNIVERSITY: VLADIMIR MIRONOV
     A.N.NESMEYANOV INSTITUTE OF ORGANOELEMENT COMPOUNDS OF RUSSIAN ACADEMY OF SCIENCES:
          IGOR S. GERASIMOV

 EXECUTION OF GAMESS BEGUN Thu Apr 30 07:16:26 2026

            ECHO OF THE FIRST FEW INPUT CARDS -
 INPUT CARD>!                                                                               
 INPUT CARD>!   GAMESS Calculation input file                                               
 INPUT CARD>!                                                                               
 INPUT CARD>!                                                                               
 INPUT CARD> $CONTRL SCFTYP=RHF MAXIT=200 RUNTYP=OPTIMIZE                                   
 INPUT CARD>         COORD=UNIQUE MULT=1                                                    
 INPUT CARD>         ICHARG=0                                                               
 INPUT CARD>         DFTTYP=B3LYP                                                           
 INPUT CARD>         MOLPLT=.FALSE. PLTORB=.FALSE.  $END                                    
 INPUT CARD> $SYSTEM TIMLIM=2879 MWORDS=250  $END                                           
 INPUT CARD>                                                                                
 INPUT CARD> $STATPT OPTTOL=0.0005 NSTEP=999 $END                                           
 INPUT CARD> $STATPT IHREP=0  $END                                                          
 INPUT CARD>                                                                                
 INPUT CARD> $DFT    METHOD=GRID  NLEB=590  $END                                            
 INPUT CARD>                                                                                
 INPUT CARD> $BASIS  GBASIS=N31 NGAUSS=6                                                    
 INPUT CARD>         NDFUNC=1   NPFUNC=0  $END                                              
 INPUT CARD>                                                                                
 INPUT CARD> $SCF    DIRSCF=.T. $END                                                        
 INPUT CARD> $GUESS  GUESS=HUCKEL  $END                                                     
 INPUT CARD>                                                                                
 INPUT CARD> $DATA                                                                          
 INPUT CARD>                                                                                
 INPUT CARD>  C1                                                                            
 INPUT CARD>O     8.0    -2.41350    -0.87110     0.00770                                   
 INPUT CARD>O     8.0     1.31080     1.23530     0.01510                                   
 INPUT CARD>C     6.0    -1.23730    -0.14930    -0.00140                                   
 INPUT CARD>C     6.0    -0.03300    -0.74110     0.00070                                   
 INPUT CARD>C     6.0     1.25730     0.00850    -0.00640                                   
 INPUT CARD>C     6.0    -1.39830     1.34010    -0.01130                                   
 INPUT CARD>C     6.0     2.51390    -0.82240    -0.00430                                   
 INPUT CARD>H     1.0     0.03160    -1.82500     0.01000                                   
 INPUT CARD>H     1.0    -0.97560     1.79070     0.89260                                   
 INPUT CARD>H     1.0    -2.45420     1.63220    -0.03350                                   
 INPUT CARD>H     1.0    -0.94290     1.78400    -0.90270                                   
 INPUT CARD>H     1.0     2.33550    -1.80830    -0.44230                                   
 INPUT CARD>H     1.0     3.27620    -0.32260    -0.60900                                   
 INPUT CARD>H     1.0     2.87120    -0.93680     1.02210                                   
 INPUT CARD>H     1.0    -3.16270    -0.25260     0.01120                                   
 INPUT CARD> $END                                                                           
 INPUT CARD>                                                                                
 INPUT CARD>                                                                                
 INPUT CARD>! Customizations after this line are persisted when using Do More Calculations  
  250000000 WORDS OF MEMORY AVAILABLE

     BASIS OPTIONS
     -------------
     GBASIS=N31          IGAUSS=       6      POLAR=POPN31  
     NDFUNC=       1     NFFUNC=       0     DIFFSP=       F
     NPFUNC=       0      DIFFS=       F     BASNAM=        


     RUN TITLE
     ---------
                                                                                 

 THE POINT GROUP OF THE MOLECULE IS C1      
 THE ORDER OF THE PRINCIPAL AXIS IS     0

 ATOM      ATOMIC                      COORDINATES (BOHR)
           CHARGE         X                   Y                   Z
 O           8.0    -4.5608536714       -1.6461403079        0.0145508901
 O           8.0     2.4770528247        2.3343785126        0.0285348624
 C           6.0    -2.3381579646       -0.2821360900       -0.0026456164
 C           6.0    -0.0623609576       -1.4004759295        0.0013228082
 C           6.0     2.3759524844        0.0160626709       -0.0120942463
 C           6.0    -2.6424038486        2.5324217961       -0.0213539037
 C           6.0     4.7505821605       -1.5541106523       -0.0081258217
 H           1.0     0.0597153412       -3.4487499276        0.0188972599
 H           1.0    -1.8436166736        3.3839323262        1.6867694166
 H           1.0    -4.6377655191        3.0844107572       -0.0633058206
 H           1.0    -1.7818226338        3.3712711621       -1.7058556491
 H           1.0     4.4134550443       -3.4171915036       -0.8358258044
 H           1.0     6.1911202810       -0.6096256036       -1.1508431265
 H           1.0     5.4257812559       -1.7702953053        1.9314889321
 H           1.0    -5.9766363814       -0.4773447845        0.0211649311

          INTERNUCLEAR DISTANCES (ANGS.)
          ------------------------------

                1 O          2 O          3 C          4 C          5 C     

   1 O       0.0000000    4.2787131    1.3800451 *  2.3840573 *  3.7747407  
   2 O       4.2787131    0.0000000    2.9000350 *  2.3900131 *  1.2281542 *
   3 C       1.3800451 *  2.9000350 *  0.0000000    1.3418532 *  2.4995910 *
   4 C       2.3840573 *  2.3900131 *  1.3418532 *  0.0000000    1.4922549 *
   5 C       3.7747407    1.2281542 *  2.4995910 *  1.4922549 *  0.0000000  
   6 C       2.4331867 *  2.7112548 *  1.4981093 *  2.4890925 *  2.9707565 *
   7 C       4.9276553    2.3836852 *  3.8111118    2.5482022 *  1.5064670 *
   8 H       2.6245846 *  3.3168984    2.1019533 *  1.0858632 *  2.2055230 *
   9 H       3.1521078    2.5111950 *  2.1520509 *  2.8449941 *  2.9950426 *
  10 H       2.5039698 *  3.7861744    2.1576882 *  3.3905651    4.0512181  
  11 H       3.1687614    2.4945124 *  2.1532910 *  2.8319922 *  2.9659120 *
  12 H       4.8614653    3.2438751    3.9637827    2.6353286 *  2.1571477 *
  13 H       5.7492484    2.5844439 *  4.5575095    3.3908231    2.1327708 *
  14 H       5.3815776    2.8577816 *  4.3066786    3.0847908    2.1344970 *
  15 H       0.9715221 *  4.7144527    1.9282103 *  3.1676118    4.4277402  

                6 C          7 C          8 H          9 H         10 H     

   1 O       2.4331867 *  4.9276553    2.6245846 *  3.1521078    2.5039698 *
   2 O       2.7112548 *  2.3836852 *  3.3168984    2.5111950 *  3.7861744  
   3 C       1.4981093 *  3.8111118    2.1019533 *  2.1520509 *  2.1576882 *
   4 C       2.4890925 *  2.5482022 *  1.0858632 *  2.8449941 *  3.3905651  
   5 C       2.9707565 *  1.5064670 *  2.2055230 *  2.9950426 *  4.0512181  
   6 C       0.0000000    4.4700967    3.4731723    1.0948748 *  1.0957829 *
   7 C       4.4700967    0.0000000    2.6771673 *  4.4507675    5.5414738  
   8 H       3.4731723    2.6771673 *  0.0000000    3.8557387    4.2583243  
   9 H       1.0948748 *  4.4507675    3.8557387    0.0000000    1.7518680 *
  10 H       1.0957829 *  5.5414738    4.2583243    1.7518680 *  0.0000000  
  11 H       1.0950024 *  4.4215280    3.8480583    1.7956103 *  1.7500227 *
  12 H       4.9030038    1.0934667 *  2.3479373 *  5.0693335    5.9114621  
  13 H       4.9972759    1.0938754 *  3.6287458    4.9798236    6.0819345  
  14 H       4.9478096    1.0928164 *  3.1427017    4.7174036    6.0061583  
  15 H       2.3770374 *  5.7051468    3.5603365    3.1201518    2.0140609 *

               11 H         12 H         13 H         14 H         15 H     

   1 O       3.1687614    4.8614653    5.7492484    5.3815776    0.9715221 *
   2 O       2.4945124 *  3.2438751    2.5844439 *  2.8577816 *  4.7144527  
   3 C       2.1532910 *  3.9637827    4.5575095    4.3066786    1.9282103 *
   4 C       2.8319922 *  2.6353286 *  3.3908231    3.0847908    3.1676118  
   5 C       2.9659120 *  2.1571477 *  2.1327708 *  2.1344970 *  4.4277402  
   6 C       1.0950024 *  4.9030038    4.9972759    4.9478096    2.3770374 *
   7 C       4.4215280    1.0934667 *  1.0938754 *  1.0928164 *  5.7051468  
   8 H       3.8480583    2.3479373 *  3.6287458    3.1427017    3.5603365  
   9 H       1.7956103 *  5.0693335    4.9798236    4.7174036    3.1201518  
  10 H       1.7500227 *  5.9114621    6.0819345    6.0061583    2.0140609 *
  11 H       0.0000000    4.8851299    4.7249157    5.0650732    3.1480891  
  12 H       4.8851299    0.0000000    1.7663550 *  1.7863242 *  5.7320213  
  13 H       4.7249157    1.7663550 *  0.0000000    1.7893445 *  6.4690789  
  14 H       5.0650732    1.7863242 *  1.7893445 *  0.0000000    6.1561350  
  15 H       3.1480891    5.7320213    6.4690789    6.1561350    0.0000000  

  * ... LESS THAN  3.000


     ATOMIC BASIS SET
     ----------------
 THE CONTRACTED PRIMITIVE FUNCTIONS HAVE BEEN UNNORMALIZED
 THE CONTRACTED BASIS FUNCTIONS ARE NOW NORMALIZED TO UNITY

  SHELL TYPE  PRIMITIVE        EXPONENT          CONTRACTION COEFFICIENT(S)

 O         

      1   S       1          5484.6716600    0.001831074430
      1   S       2           825.2349460    0.013950172200
      1   S       3           188.0469580    0.068445078098
      1   S       4            52.9645000    0.232714335992
      1   S       5            16.8975704    0.470192897984
      1   S       6             5.7996353    0.358520852987

      2   L       7            15.5396162   -0.110777549525    0.070874268231
      2   L       8             3.5999336   -0.148026262701    0.339752839147
      2   L       9             1.0137618    1.130767015354    0.727158577316

      3   L      10             0.2700058    1.000000000000    1.000000000000

      4   D      11             0.8000000    1.000000000000

 O         

      5   S      12          5484.6716600    0.001831074430
      5   S      13           825.2349460    0.013950172200
      5   S      14           188.0469580    0.068445078098
      5   S      15            52.9645000    0.232714335992
      5   S      16            16.8975704    0.470192897984
      5   S      17             5.7996353    0.358520852987

      6   L      18            15.5396162   -0.110777549525    0.070874268231
      6   L      19             3.5999336   -0.148026262701    0.339752839147
      6   L      20             1.0137618    1.130767015354    0.727158577316

      7   L      21             0.2700058    1.000000000000    1.000000000000

      8   D      22             0.8000000    1.000000000000

 C         

      9   S      23          3047.5248800    0.001834737132
      9   S      24           457.3695180    0.014037322813
      9   S      25           103.9486850    0.068842622264
      9   S      26            29.2101553    0.232184443216
      9   S      27             9.2866630    0.467941348435
      9   S      28             3.1639270    0.362311985337

     10   L      29             7.8682723   -0.119332419775    0.068999066591
     10   L      30             1.8812885   -0.160854151696    0.316423960957
     10   L      31             0.5442493    1.143456437840    0.744308290898

     11   L      32             0.1687145    1.000000000000    1.000000000000

     12   D      33             0.8000000    1.000000000000

 C         

     13   S      34          3047.5248800    0.001834737132
     13   S      35           457.3695180    0.014037322813
     13   S      36           103.9486850    0.068842622264
     13   S      37            29.2101553    0.232184443216
     13   S      38             9.2866630    0.467941348435
     13   S      39             3.1639270    0.362311985337

     14   L      40             7.8682723   -0.119332419775    0.068999066591
     14   L      41             1.8812885   -0.160854151696    0.316423960957
     14   L      42             0.5442493    1.143456437840    0.744308290898

     15   L      43             0.1687145    1.000000000000    1.000000000000

     16   D      44             0.8000000    1.000000000000

 C         

     17   S      45          3047.5248800    0.001834737132
     17   S      46           457.3695180    0.014037322813
     17   S      47           103.9486850    0.068842622264
     17   S      48            29.2101553    0.232184443216
     17   S      49             9.2866630    0.467941348435
     17   S      50             3.1639270    0.362311985337

     18   L      51             7.8682723   -0.119332419775    0.068999066591
     18   L      52             1.8812885   -0.160854151696    0.316423960957
     18   L      53             0.5442493    1.143456437840    0.744308290898

     19   L      54             0.1687145    1.000000000000    1.000000000000

     20   D      55             0.8000000    1.000000000000

 C         

     21   S      56          3047.5248800    0.001834737132
     21   S      57           457.3695180    0.014037322813
     21   S      58           103.9486850    0.068842622264
     21   S      59            29.2101553    0.232184443216
     21   S      60             9.2866630    0.467941348435
     21   S      61             3.1639270    0.362311985337

     22   L      62             7.8682723   -0.119332419775    0.068999066591
     22   L      63             1.8812885   -0.160854151696    0.316423960957
     22   L      64             0.5442493    1.143456437840    0.744308290898

     23   L      65             0.1687145    1.000000000000    1.000000000000

     24   D      66             0.8000000    1.000000000000

 C         

     25   S      67          3047.5248800    0.001834737132
     25   S      68           457.3695180    0.014037322813
     25   S      69           103.9486850    0.068842622264
     25   S      70            29.2101553    0.232184443216
     25   S      71             9.2866630    0.467941348435
     25   S      72             3.1639270    0.362311985337

     26   L      73             7.8682723   -0.119332419775    0.068999066591
     26   L      74             1.8812885   -0.160854151696    0.316423960957
     26   L      75             0.5442493    1.143456437840    0.744308290898

     27   L      76             0.1687145    1.000000000000    1.000000000000

     28   D      77             0.8000000    1.000000000000

 H         

     29   S      78            18.7311370    0.033494604338
     29   S      79             2.8253944    0.234726953484
     29   S      80             0.6401217    0.813757326146

     30   S      81             0.1612778    1.000000000000

 H         

     31   S      82            18.7311370    0.033494604338
     31   S      83             2.8253944    0.234726953484
     31   S      84             0.6401217    0.813757326146

     32   S      85             0.1612778    1.000000000000

 H         

     33   S      86            18.7311370    0.033494604338
     33   S      87             2.8253944    0.234726953484
     33   S      88             0.6401217    0.813757326146

     34   S      89             0.1612778    1.000000000000

 H         

     35   S      90            18.7311370    0.033494604338
     35   S      91             2.8253944    0.234726953484
     35   S      92             0.6401217    0.813757326146

     36   S      93             0.1612778    1.000000000000

 H         

     37   S      94            18.7311370    0.033494604338
     37   S      95             2.8253944    0.234726953484
     37   S      96             0.6401217    0.813757326146

     38   S      97             0.1612778    1.000000000000

 H         

     39   S      98            18.7311370    0.033494604338
     39   S      99             2.8253944    0.234726953484
     39   S     100             0.6401217    0.813757326146

     40   S     101             0.1612778    1.000000000000

 H         

     41   S     102            18.7311370    0.033494604338
     41   S     103             2.8253944    0.234726953484
     41   S     104             0.6401217    0.813757326146

     42   S     105             0.1612778    1.000000000000

 H         

     43   S     106            18.7311370    0.033494604338
     43   S     107             2.8253944    0.234726953484
     43   S     108             0.6401217    0.813757326146

     44   S     109             0.1612778    1.000000000000

 TOTAL NUMBER OF BASIS SET SHELLS             =   44
 NUMBER OF CARTESIAN GAUSSIAN BASIS FUNCTIONS =  121
 NUMBER OF ELECTRONS                          =   54
 CHARGE OF MOLECULE                           =    0
 SPIN MULTIPLICITY                            =    1
 NUMBER OF OCCUPIED ORBITALS (ALPHA)          =   27
 NUMBER OF OCCUPIED ORBITALS (BETA )          =   27
 TOTAL NUMBER OF ATOMS                        =   15
 THE NUCLEAR REPULSION ENERGY IS      293.5579126595

 SELECTED MURRAY-HANDY-LAMING RADIAL GRID

 LEGACY BECKE'S FUZZY CELL METHOD

 SELECTED ORIGINAL BECKE'S PARTITION FUNCTION

     LEBEDEV GRID-BASED DFT OPTIONS
     ------------------------------
     DFTTYP=B3LYP   
     NRAD  =      96     NLEB  =     590
     NRAD0 =      24     NLEB0 =     110
     SWOFF =    5.00E-03 (PURE SCF -> DFT)
     SWITCH=    3.00E-04 (COARSE -> TIGHT GRID)
     THRESH=    0.00E+00 GTHRE=    1.00E+00

 GRIMME'S EMPIRICAL DISPERSION CORRECTION= F

     $CONTRL OPTIONS
     ---------------
 SCFTYP=RHF          RUNTYP=OPTIMIZE     EXETYP=RUN     
 MPLEVL=       0     CITYP =NONE         CCTYP =NONE         VBTYP =NONE    
 DFTTYP=B3LYP        TDDFT =NONE    
 MULT  =       1     ICHARG=       0     NZVAR =       0     COORD =UNIQUE  
 PP    =NONE         RELWFN=NONE         LOCAL =NONE         NUMGRD=       F
 ISPHER=      -1     NOSYM =       0     MAXIT =     200     UNITS =ANGS    
 PLTORB=       F     MOLPLT=       F     AIMPAC=       F     FRIEND=        
 NPRINT=       7     IREST =       0     GEOM  =INPUT   
 NORMF =       0     NORMP =       0     ITOL  =      20     ICUT  =       9
 INTTYP=BEST         GRDTYP=BEST         QMTTOL= 1.0E-06

     $SYSTEM OPTIONS
     ---------------
  REPLICATED MEMORY=   250000000 WORDS (ON EVERY NODE).
 DISTRIBUTED MEMDDI=           0 MILLION WORDS IN AGGREGATE,
 MEMDDI DISTRIBUTED OVER   1 PROCESSORS IS           0 WORDS/PROCESSOR.
 TOTAL MEMORY REQUESTED ON EACH PROCESSOR=   250000000 WORDS.
 TIMLIM=        2879.00 MINUTES, OR       2.0 DAYS.
 PARALL= F  BALTYP=  DLB     KDIAG=    0  COREFL= F
 MXSEQ2=     300 MXSEQ3=     150  mem10=         0

          ----------------
          PROPERTIES INPUT
          ----------------

     MOMENTS            FIELD           POTENTIAL          DENSITY
 IEMOM =       1   IEFLD =       0   IEPOT =       0   IEDEN =       0
 WHERE =COMASS     WHERE =NUCLEI     WHERE =NUCLEI     WHERE =NUCLEI  
 OUTPUT=BOTH       OUTPUT=BOTH       OUTPUT=BOTH       OUTPUT=BOTH    
 IEMINT=       0   IEFINT=       0                     IEDINT=       0
                                                       MORB  =       0
          EXTRAPOLATION IN EFFECT
          DIIS IN EFFECT
 ORBITAL PRINTING OPTION: NPREO=     1   121     2     1

     -------------------------------
     INTEGRAL TRANSFORMATION OPTIONS
     -------------------------------
     NWORD  =            0
     CUTOFF = 1.0E-09     MPTRAN =       0
     DIRTRF =       T     AOINTS =DUP     

          ----------------------
          INTEGRAL INPUT OPTIONS
          ----------------------
 NOPK  =       1 NORDER=       0 SCHWRZ=       T

     ------------------------------------------
     THE POINT GROUP IS C1 , NAXIS= 0, ORDER= 1
     ------------------------------------------

     DIMENSIONS OF THE SYMMETRY SUBSPACES ARE
 A   =  121

 ..... DONE SETTING UP THE RUN .....
 STEP CPU TIME =     0.02 TOTAL CPU TIME =          0.0 (      0.0 MIN)
 TOTAL WALL CLOCK TIME=          0.0 SECONDS, CPU UTILIZATION IS    50.00%


          -----------------------------
          STATIONARY POINT LOCATION RUN
          -----------------------------

 OBTAINING INITIAL HESSIAN, HESS=GUESS   
 CARTESIAN COORDINATE OPTIMIZATION USING BADGER'S RULE FORCE CONSTANT GUESS

          PARAMETERS CONTROLLING GEOMETRY SEARCH ARE
          METHOD =QA                  UPHESS =BFGS    
          NNEG   =         0          NFRZ   =         0
          NSTEP  =       999          IFOLOW =         1
          HESS   =GUESS               RESTAR =         F
          IHREP  =         0          HSSEND =         F
          NPRT   =         0          NPUN   =         0
          OPTTOL = 5.000E-04          RMIN   = 1.500E-03
          RMAX   = 1.000E-01          RLIM   = 7.000E-02
          DXMAX  = 3.000E-01          PURIFY =         F
          MOVIE  =         F          TRUPD  =         T
          TRMAX  = 5.000E-01          TRMIN  = 5.000E-02
          ITBMAT =         5          STPT   =         F
          STSTEP = 1.000E-02          PROJCT=          T

 BEGINNING GEOMETRY SEARCH POINT NSERCH=   0 ...

 COORDINATES OF ALL ATOMS ARE (ANGS)
   ATOM   CHARGE       X              Y              Z
 ------------------------------------------------------------
 O           8.0  -2.4135000000  -0.8711000000   0.0077000000
 O           8.0   1.3108000000   1.2353000000   0.0151000000
 C           6.0  -1.2373000000  -0.1493000000  -0.0014000000
 C           6.0  -0.0330000000  -0.7411000000   0.0007000000
 C           6.0   1.2573000000   0.0085000000  -0.0064000000
 C           6.0  -1.3983000000   1.3401000000  -0.0113000000
 C           6.0   2.5139000000  -0.8224000000  -0.0043000000
 H           1.0   0.0316000000  -1.8250000000   0.0100000000
 H           1.0  -0.9756000000   1.7907000000   0.8926000000
 H           1.0  -2.4542000000   1.6322000000  -0.0335000000
 H           1.0  -0.9429000000   1.7840000000  -0.9027000000
 H           1.0   2.3355000000  -1.8083000000  -0.4423000000
 H           1.0   3.2762000000  -0.3226000000  -0.6090000000
 H           1.0   2.8712000000  -0.9368000000   1.0221000000
 H           1.0  -3.1627000000  -0.2526000000   0.0112000000

          ********************
          1 ELECTRON INTEGRALS
          ********************
 ...... END OF ONE-ELECTRON INTEGRALS ......
 STEP CPU TIME =     0.01 TOTAL CPU TIME =          0.0 (      0.0 MIN)
 TOTAL WALL CLOCK TIME=          0.1 SECONDS, CPU UTILIZATION IS    42.86%

          -------------
          GUESS OPTIONS
          -------------
          GUESS =HUCKEL            NORB  =       0          NORDER=       0
          MIX   =       F          PRTMO =       F          PUNMO =       F
          TOLZ  = 1.0E-08          TOLE  = 1.0E-05
          SYMDEN=       F          PURIFY=       F

 INITIAL GUESS ORBITALS GENERATED BY HUCKEL   ROUTINE.
 HUCKEL GUESS REQUIRES    124942 WORDS.

 SYMMETRIES FOR INITIAL GUESS ORBITALS FOLLOW.   BOTH SET(S).
    27 ORBITALS ARE OCCUPIED (    7 CORE ORBITALS).
     8=A        9=A       10=A       11=A       12=A       13=A       14=A   
    15=A       16=A       17=A       18=A       19=A       20=A       21=A   
    22=A       23=A       24=A       25=A       26=A       27=A       28=A   
    29=A       30=A       31=A       32=A       33=A       34=A       35=A   
    36=A       37=A   
 ...... END OF INITIAL ORBITAL SELECTION ......
 STEP CPU TIME =     0.03 TOTAL CPU TIME =          0.1 (      0.0 MIN)
 TOTAL WALL CLOCK TIME=          0.1 SECONDS, CPU UTILIZATION IS    60.00%

                    ----------------------
                    AO INTEGRAL TECHNOLOGY
                    ----------------------
     S,P,L SHELL ROTATED AXIS INTEGRALS, REPROGRAMMED BY
        KAZUYA ISHIMURA (IMS) AND JOSE SIERRA (SYNSTAR).
     S,P,D,L SHELL ROTATED AXIS INTEGRALS PROGRAMMED BY
        KAZUYA ISHIMURA (INSTITUTE FOR MOLECULAR SCIENCE).
     S,P,D,F,G SHELL TO TOTAL QUARTET ANGULAR MOMENTUM SUM 5,
        ERIC PROGRAM BY GRAHAM FLETCHER (ELORET AND NASA ADVANCED
        SUPERCOMPUTING DIVISION, AMES RESEARCH CENTER).
     S,P,D,F,G,L SHELL GENERAL RYS QUADRATURE PROGRAMMED BY
        MICHEL DUPUIS (PACIFIC NORTHWEST NATIONAL LABORATORY).

          --------------------
          2 ELECTRON INTEGRALS
          --------------------

 DIRECT SCF METHOD SKIPS INTEGRAL STORAGE ON DISK.
 DIRECT TRANSFORMATION SKIPS AO INTEGRAL STORAGE ON DISK.
  ...... END OF TWO-ELECTRON INTEGRALS .....
 STEP CPU TIME =     0.00 TOTAL CPU TIME =          0.1 (      0.0 MIN)
 TOTAL WALL CLOCK TIME=          0.1 SECONDS, CPU UTILIZATION IS    50.00%

          --------------------------
             R-B3LYP SCF CALCULATION
          --------------------------

     NUCLEAR ENERGY =       293.5579126595
     MAXIT =  200     NPUNCH=    2
     EXTRAP=T  DAMP=F  SHIFT=F  RSTRCT=F  DIIS=T  DEM=F  SOSCF=F
         DENSITY MATRIX CONVERGENCE THRESHOLD=  2.00E-05
     COARSE -> FINE DFT GRID SWITCH THRESHOLD=  3.00E-04 (SWITCH IN $DFT)
                   HF -> DFT SWITCH THRESHOLD=  5.00E-03 (SWOFF IN $DFT)
     MEMORY REQUIRED FOR RHF ITERS=   1112380 WORDS.

 DIRECT SCF CALCULATION, SCHWRZ=T   FDIFF=T,  DIRTHR=  0.00E+00 NITDIR=10
 SCHWARZ INEQUALITY OVERHEAD:      7243 INTEGRALS, T=        0.00

 DFT CODE IS SWITCHING FROM THE FINE GRID NRAD= 96,  NLEB=  590
                      TO THE COARSE GRID NRAD0= 24, NLEB0=  110

     EXCHANGE FUNCTIONAL   =B88&HFX   
     CORRELATION FUNCTIONAL=LYP88&VWN5
     DFT THRESHOLD         =.471E-08
     GRID CHANGE THRESHOLD =.300E-03
 FOR AN EULER-MACLAURIN QUADRATURE USING  96 RADIAL POINTS:
 SMALLEST GAUSSIAN PRIMITIVE EXPONENT=        0.1612777588 OF TYPE -S-
 ON ATOM NUMBER   8 HAS RADIAL NORMALIZATION=  1.000000
  LARGEST GAUSSIAN PRIMITIVE EXPONENT=     5484.6716600000 OF TYPE -S-
 ON ATOM NUMBER   1 HAS RADIAL NORMALIZATION=  1.000000
chemcompute.org
{'UTCtimestamp': '2026-04-30T07:16:26.412281', 'cluster': 'jetstream2', 'clusterJobNumber': '1118334', 'status': 'RUNNING', 'nodeList': 'chemcompute-node-0'}
 DFT IS SWITCHED OFF, PERFORMING PURE SCF UNTIL SWOFF THRESHOLD IS REACHED.

                                                                                   NONZERO     BLOCKS
 ITER EX DEM     TOTAL ENERGY        E CHANGE  DENSITY CHANGE    DIIS ERROR      INTEGRALS    SKIPPED
   1  0  0     -342.6755188713  -342.6755188713   0.293739449   0.537355703       20313758     138682
          * * *   INITIATING DIIS PROCEDURE   * * *
   2  1  0     -343.5787681864    -0.9032493152   0.203874465   0.107975551       20312860     143038
   3  2  0     -343.6477218004    -0.0689536140   0.107170059   0.080346667       20231083     152652
   4  3  0     -343.6948544597    -0.0471326593   0.013799864   0.007817697       20113818     163308
   5  4  0     -343.6963993088    -0.0015448491   0.006374797   0.003053346       19892233     176914
   6  5  0     -343.6966252700    -0.0002259612   0.002382751   0.001100743       19657193     187997
 CONVERGED TO SWOFF, SO DFT CALCULATION IS NOW SWITCHED ON.
          * * *   INITIATING DIIS PROCEDURE   * * *
   7  6  0     -345.5338628127    -1.8372375427   0.116142644   0.092044923       20322161     138405
   8  7  0     -345.5651838188    -0.0313210061   0.071947939   0.030188172       20242871     152057
   9  8  0     -345.5598965763     0.0052872424   0.061850653   0.045783455       20133900     160940
  10  9  0     -345.5725015726    -0.0126049962   0.015181713   0.008639867       20047525     167479
  11 10  0     -345.5731668979    -0.0006653253   0.001711687   0.001302133       19766803     182076
  12 11  0     -345.5731824989    -0.0000156010   0.000777459   0.000600752       19220850     205091
  13 12  0     -345.5731848852    -0.0000023864   0.000117704   0.000099467       18683570     220528
 DFT CODE IS SWITCHING BACK TO THE FINE GRID
          * * *   INITIATING DIIS PROCEDURE   * * *
  14 13  0     -345.5735460573    -0.0003611721   0.007325337   0.001378336       20327642     137099
  15 14  0     -345.5735820802    -0.0000360228   0.001826777   0.000521716       19623404     190815
  16 15  0     -345.5735804898     0.0000015904   0.000968994   0.000928680       18997138     212116
  17 16  0     -345.5735850161    -0.0000045263   0.000096895   0.000059805       18602604     223629
  18 17  0     -345.5735850299    -0.0000000138   0.000075891   0.000065867       17716672     245644
  19 18  0     -345.5735850524    -0.0000000226   0.000020234   0.000014090       17088442     260858
  20 19  0     -345.5735850533    -0.0000000009   0.000006270   0.000003411       15885568     282093
  21 20  0     -345.5735850538    -0.0000000005   0.000002823   0.000001262       15241923     293893

          -----------------
          DENSITY CONVERGED
          -----------------
     TIME TO FORM FOCK OPERATORS=      36.6 SECONDS (       1.7 SEC/ITER)
     FOCK TIME ON FIRST ITERATION=       0.6, LAST ITERATION=       3.4
     TIME TO SOLVE SCF EQUATIONS=       0.2 SECONDS (       0.0 SEC/ITER)

 FINAL R-B3LYP ENERGY IS     -345.5735850538 AFTER  21 ITERATIONS
 DFT EXCHANGE + CORRELATION ENERGY =       -38.0387342171
 TOTAL ELECTRON NUMBER             =        54.0000327875

          ------------
          EIGENVECTORS
          ------------

                      1          2          3          4          5
                  -19.1912   -19.1116   -10.2671   -10.2599   -10.1893
                     A          A          A          A          A   
    1  O  1  S    0.992724  -0.000025   0.000047  -0.000012  -0.000034
    2  O  1  S    0.025751  -0.000102   0.000645  -0.000039  -0.000174
    3  O  1  X   -0.000050  -0.000013  -0.000031  -0.000017  -0.000056
    4  O  1  Y    0.001010   0.000009  -0.000014  -0.000003  -0.000022
    5  O  1  Z   -0.000003  -0.000001   0.000000   0.000001  -0.000001
    6  O  1  S    0.013091   0.000731  -0.002920   0.000075   0.000460
    7  O  1  X    0.000964   0.000290  -0.001670  -0.000028   0.000378
    8  O  1  Y    0.000266  -0.000006  -0.001080   0.000110  -0.000238
    9  O  1  Z   -0.000005   0.000004   0.000013  -0.000008   0.000005
   10  O  1 XX   -0.008102  -0.000025  -0.000373  -0.000056  -0.000007
   11  O  1 YY   -0.008198  -0.000085   0.000088  -0.000009  -0.000095
   12  O  1 ZZ   -0.008136  -0.000043   0.000605  -0.000058  -0.000186
   13  O  1 XY    0.000026   0.000012  -0.000561   0.000002  -0.000004
   14  O  1 XZ    0.000000   0.000001   0.000008  -0.000001  -0.000000
   15  O  1 YZ    0.000000   0.000001   0.000006  -0.000002   0.000001
   16  O  2  S   -0.000003   0.992668   0.000020   0.000001  -0.000085
   17  O  2  S   -0.000034   0.025369   0.000064   0.000920  -0.000379
   18  O  2  X    0.000013  -0.000011  -0.000035  -0.000005   0.000098
   19  O  2  Y   -0.000005  -0.001097   0.000019   0.000037   0.000038
   20  O  2  Z   -0.000000  -0.000015  -0.000001  -0.000003   0.000001
   21  O  2  S    0.000241   0.015716  -0.000223  -0.006160   0.001843
   22  O  2  X   -0.000149  -0.000312   0.000221   0.000189  -0.000329
   23  O  2  Y   -0.000011  -0.001971  -0.000154   0.002747  -0.000531
   24  O  2  Z    0.000001  -0.000046   0.000003   0.000060  -0.000007
   25  O  2 XX   -0.000016  -0.008341   0.000012   0.000612  -0.000159
   26  O  2 YY   -0.000039  -0.007838   0.000109  -0.000116  -0.000200
   27  O  2 ZZ   -0.000016  -0.008409   0.000075   0.000784  -0.000350
   28  O  2 XY    0.000023   0.000043  -0.000008  -0.000046   0.000025
   29  O  2 XZ    0.000001   0.000000  -0.000000   0.000003   0.000001
   30  O  2 YZ   -0.000001   0.000012  -0.000000  -0.000022   0.000003
   31  C  3  S   -0.000015  -0.000021   0.992904  -0.000077  -0.001824
   32  C  3  S    0.000259  -0.000083   0.048688  -0.000074  -0.000260
   33  C  3  X   -0.000313  -0.000063  -0.000871   0.000050   0.000088
   34  C  3  Y   -0.000297  -0.000002  -0.000343   0.000005  -0.000242
   35  C  3  Z    0.000003   0.000004  -0.000003  -0.000003   0.000003
   36  C  3  S   -0.001795  -0.000918  -0.014252   0.001847   0.003270
   37  C  3  X    0.001637   0.000022  -0.004788   0.001181  -0.001560
   38  C  3  Y    0.002322   0.001479  -0.003136  -0.001623   0.004191
   39  C  3  Z   -0.000025  -0.000033   0.000045   0.000044  -0.000035
   40  C  3 XX    0.000009  -0.000062  -0.008470   0.000105  -0.000203
   41  C  3 YY    0.000043  -0.000025  -0.008943   0.000026  -0.000469
   42  C  3 ZZ   -0.000016  -0.000035  -0.009395  -0.000018  -0.000130
   43  C  3 XY    0.000046   0.000036   0.000247  -0.000066   0.000100
   44  C  3 XZ   -0.000000  -0.000002  -0.000005   0.000003  -0.000001
   45  C  3 YZ   -0.000001   0.000002  -0.000004  -0.000003   0.000003
   46  C  4  S   -0.000006  -0.000008   0.003979   0.001430  -0.000175
   47  C  4  S    0.000044   0.000009  -0.000511  -0.000055  -0.000257
   48  C  4  X   -0.000038   0.000071   0.000281  -0.000281   0.000013
   49  C  4  Y    0.000025  -0.000051  -0.000255  -0.000103  -0.000067
   50  C  4  Z   -0.000000  -0.000006   0.000004   0.000013   0.000000
   51  C  4  S    0.000698  -0.000253   0.007055   0.003486   0.001732
   52  C  4  X   -0.000352  -0.002165  -0.001405   0.004702  -0.001824
   53  C  4  Y   -0.000577   0.000733   0.003615  -0.000862   0.000333
   54  C  4  Z    0.000010   0.000043  -0.000035  -0.000079   0.000011
   55  C  4 XX   -0.000050   0.000039  -0.000324  -0.000466   0.000149
   56  C  4 YY   -0.000050  -0.000082  -0.000234  -0.000311   0.000031
   57  C  4 ZZ    0.000001  -0.000023  -0.000248  -0.000129  -0.000103
   58  C  4 XY    0.000018  -0.000029  -0.000070  -0.000166  -0.000025
   59  C  4 XZ    0.000000   0.000002   0.000000  -0.000001   0.000000
   60  C  4 YZ    0.000001   0.000001   0.000000  -0.000005   0.000000
   61  C  5  S    0.000013  -0.000037   0.000073   0.992981   0.000009
   62  C  5  S    0.000040   0.000345   0.000004   0.048874  -0.000047
   63  C  5  X   -0.000073  -0.000023   0.000148   0.000081   0.000071
   64  C  5  Y    0.000009   0.000033  -0.000043   0.000676  -0.000114
   65  C  5  Z    0.000001   0.000003  -0.000002   0.000020  -0.000002
   66  C  5  S    0.000135  -0.001955  -0.002207  -0.011530  -0.000460
   67  C  5  X    0.000569   0.000047   0.000085   0.000004  -0.000452
   68  C  5  Y   -0.000271  -0.004966   0.000561   0.007307  -0.000793
   69  C  5  Z   -0.000008  -0.000075  -0.000003   0.000136  -0.000024
   70  C  5 XX    0.000022  -0.000072   0.000005  -0.009169  -0.000095
   71  C  5 YY    0.000026  -0.000887  -0.000008  -0.008092  -0.000075
   72  C  5 ZZ    0.000040  -0.000105  -0.000015  -0.009363  -0.000041
   73  C  5 XY    0.000008  -0.000001  -0.000003   0.000056   0.000063
   74  C  5 XZ    0.000000   0.000000  -0.000002   0.000016  -0.000002
   75  C  5 YZ    0.000000  -0.000019  -0.000002   0.000018  -0.000000
   76  C  6  S    0.000020   0.000034   0.001584  -0.000068   0.992907
   77  C  6  S    0.000165   0.000157  -0.000162  -0.000142   0.050398
   78  C  6  X    0.000002   0.000130   0.000065  -0.000053  -0.000038
   79  C  6  Y    0.000059   0.000015   0.000243   0.000010  -0.000197
   80  C  6  Z   -0.000001   0.000001   0.000001   0.000000   0.000002
   81  C  6  S   -0.001325  -0.001054   0.004497   0.001307  -0.018713
   82  C  6  X   -0.000417  -0.000755   0.001052   0.000067  -0.000143
   83  C  6  Y    0.000335   0.000504  -0.002440  -0.000550   0.001738
   84  C  6  Z    0.000007  -0.000004  -0.000005  -0.000004  -0.000013
   85  C  6 XX    0.000003   0.000061  -0.000172  -0.000078  -0.009141
   86  C  6 YY   -0.000046   0.000036  -0.000445  -0.000021  -0.009240
   87  C  6 ZZ    0.000015   0.000032  -0.000039  -0.000064  -0.009149
   88  C  6 XY    0.000037   0.000005  -0.000160   0.000016  -0.000025
   89  C  6 XZ    0.000001   0.000001  -0.000002  -0.000002   0.000001
   90  C  6 YZ    0.000001  -0.000001   0.000003   0.000001   0.000000
   91  C  7  S    0.000010   0.000015  -0.000036   0.001366  -0.000093
   92  C  7  S    0.000052   0.000133  -0.000156  -0.000149  -0.000124
   93  C  7  X    0.000016   0.000059  -0.000022   0.000124   0.000013
   94  C  7  Y   -0.000012  -0.000002   0.000034  -0.000138   0.000006
   95  C  7  Z   -0.000002   0.000006  -0.000000   0.000073  -0.000009
   96  C  7  S   -0.000566  -0.001457   0.001105   0.005026   0.000466
   97  C  7  X    0.000159   0.000786  -0.000559  -0.002596  -0.000193
   98  C  7  Y   -0.000144   0.000260   0.000042   0.000244   0.000247
   99  C  7  Z    0.000018   0.000006   0.000009  -0.000473   0.000067
  100  C  7 XX    0.000007  -0.000051   0.000031  -0.000236  -0.000002
  101  C  7 YY    0.000002   0.000008  -0.000044  -0.000359  -0.000004
  102  C  7 ZZ    0.000014   0.000013  -0.000042  -0.000075  -0.000044
  103  C  7 XY    0.000014  -0.000011  -0.000015   0.000250  -0.000041
  104  C  7 XZ    0.000001  -0.000009   0.000009   0.000015   0.000000
  105  C  7 YZ    0.000002  -0.000017   0.000012   0.000040  -0.000003
  106  H  8  S   -0.000006   0.000119   0.000080  -0.000260  -0.000031
  107  H  8  S   -0.000413   0.000343   0.000916  -0.000876   0.000219
  108  H  9  S    0.000042   0.000156  -0.000218  -0.000055   0.000064
  109  H  9  S    0.000119  -0.000033   0.000272  -0.000089   0.002694
  110  H 10  S   -0.000008  -0.000040  -0.000093  -0.000034  -0.000014
  111  H 10  S    0.000129  -0.000353   0.000341   0.000034   0.002657
  112  H 11  S    0.000045   0.000156  -0.000219  -0.000066   0.000067
  113  H 11  S    0.000130  -0.000023   0.000236  -0.000073   0.002685
  114  H 12  S    0.000009   0.000063  -0.000062  -0.000196  -0.000021
  115  H 12  S    0.000041   0.000222  -0.000097  -0.000569   0.000071
  116  H 13  S    0.000020   0.000049  -0.000018  -0.000132  -0.000026
  117  H 13  S    0.000032  -0.000106   0.000035   0.000180   0.000025
  118  H 14  S    0.000014   0.000027  -0.000044  -0.000177  -0.000030
  119  H 14  S    0.000015   0.000070  -0.000030   0.000558  -0.000047
  120  H 15  S    0.000416   0.000003   0.000145   0.000004   0.000008
  121  H 15  S   -0.001094   0.000042  -0.000239   0.000032  -0.000011

                      6          7          8          9         10
                  -10.1755   -10.1713    -1.0654    -1.0122    -0.7909
                     A          A          A          A          A   
    1  O  1  S   -0.000018   0.000003  -0.202507   0.009618   0.053419
    2  O  1  S   -0.000077  -0.000049   0.446128  -0.022489  -0.126245
    3  O  1  X   -0.000013   0.000004   0.017918   0.001304   0.103562
    4  O  1  Y   -0.000012  -0.000009   0.116907  -0.005342  -0.012145
    5  O  1  Z   -0.000002   0.000000  -0.000394   0.000004  -0.000608
    6  O  1  S    0.000368   0.000072   0.452646  -0.017401  -0.132803
    7  O  1  X    0.000037  -0.000024   0.015846   0.003104   0.056494
    8  O  1  Y    0.000178   0.000138   0.060223  -0.002985  -0.004870
    9  O  1  Z    0.000016  -0.000002  -0.000202   0.000056  -0.000374
   10  O  1 XX   -0.000059   0.000079   0.012430  -0.000457   0.000308
   11  O  1 YY   -0.000021   0.000044   0.007430  -0.001014  -0.001739
   12  O  1 ZZ   -0.000070  -0.000031  -0.012076   0.000121  -0.000323
   13  O  1 XY    0.000014   0.000016  -0.004316   0.000608   0.012407
   14  O  1 XZ    0.000003  -0.000000  -0.000174   0.000013  -0.000030
   15  O  1 YZ    0.000002  -0.000001  -0.000011   0.000009  -0.000086
   16  O  2  S   -0.000036   0.000050  -0.005783  -0.192663   0.043244
   17  O  2  S   -0.000193   0.000192   0.010361   0.413034  -0.095918
   18  O  2  X   -0.000017  -0.000017  -0.000942  -0.008465  -0.016932
   19  O  2  Y    0.000027  -0.000036  -0.004812  -0.157340   0.014442
   20  O  2  Z   -0.000016  -0.000003  -0.000077  -0.002617   0.000415
   21  O  2  S    0.000625  -0.001714   0.021802   0.421658  -0.109537
   22  O  2  X   -0.000331   0.000476  -0.001613  -0.005641  -0.006901
   23  O  2  Y   -0.000258   0.000428  -0.003578  -0.062284   0.004625
   24  O  2  Z    0.000067   0.000011  -0.000062  -0.001132   0.000022
   25  O  2 XX   -0.000057   0.000201  -0.000971  -0.012109   0.002562
   26  O  2 YY    0.000009   0.000193  -0.000411   0.008948   0.000900
   27  O  2 ZZ   -0.000209   0.000049  -0.000942  -0.008646   0.000648
   28  O  2 XY    0.000039  -0.000070   0.000236   0.001460   0.001621
   29  O  2 XZ    0.000013  -0.000006   0.000006   0.000114   0.000009
   30  O  2 YZ   -0.000010   0.000003   0.000009   0.000345  -0.000014
   31  C  3  S   -0.000013  -0.004519  -0.079270  -0.004958  -0.129761
   32  C  3  S   -0.000110  -0.000836   0.151843   0.010238   0.264019
   33  C  3  X    0.000002  -0.000365  -0.100104   0.015822   0.112100
   34  C  3  Y    0.000014   0.000189  -0.053127   0.003924   0.029052
   35  C  3  Z    0.000010  -0.000001   0.000742   0.000001  -0.000576
   36  C  3  S    0.001037   0.007343   0.027821  -0.025610   0.183494
   37  C  3  X    0.001122   0.003316   0.014269  -0.011419   0.028035
   38  C  3  Y   -0.000814  -0.000471   0.036597   0.012416   0.025177
   39  C  3  Z   -0.000074  -0.000000  -0.000481  -0.000372  -0.000077
   40  C  3 XX    0.000020  -0.000347   0.012851  -0.000069  -0.005805
   41  C  3 YY   -0.000037  -0.000329  -0.004163  -0.000174   0.002329
   42  C  3 ZZ   -0.000055  -0.000139  -0.012681  -0.000382  -0.013140
   43  C  3 XY   -0.000040   0.000096   0.014102  -0.000567  -0.009825
   44  C  3 XZ   -0.000003   0.000000  -0.000215   0.000009   0.000049
   45  C  3 YZ    0.000002   0.000001  -0.000115   0.000015  -0.000099
   46  C  4  S   -0.000692   0.992750  -0.015331  -0.020807  -0.127722
   47  C  4  S   -0.000163   0.050006   0.028108   0.036666   0.245772
   48  C  4  X   -0.000106  -0.000248  -0.022042   0.019828  -0.056840
   49  C  4  Y    0.000043   0.000316   0.005217   0.021422   0.051418
   50  C  4  Z   -0.000022  -0.000001   0.000004  -0.000030  -0.000327
   51  C  4  S   -0.000439  -0.017650   0.020892   0.022779   0.166015
   52  C  4  X    0.001503   0.000804  -0.028332  -0.031138   0.004317
   53  C  4  Y   -0.000007  -0.003660  -0.011110   0.023908  -0.016766
   54  C  4  Z    0.000117   0.000016   0.000344   0.000597  -0.000254
   55  C  4 XX   -0.000031  -0.009167   0.005221   0.003657   0.003727
   56  C  4 YY    0.000061  -0.009420  -0.001382   0.002797   0.000957
   57  C  4 ZZ   -0.000076  -0.009611  -0.001794  -0.002598  -0.012802
   58  C  4 XY    0.000080  -0.000184  -0.000765   0.004624  -0.005812
   59  C  4 XZ    0.000007  -0.000001  -0.000006   0.000031   0.000002
   60  C  4 YZ    0.000001  -0.000002   0.000011   0.000008  -0.000157
   61  C  5  S   -0.001601  -0.001688  -0.004861  -0.120051  -0.033042
   62  C  5  S   -0.000309  -0.000334   0.008818   0.230589   0.066685
   63  C  5  X   -0.000212   0.000268  -0.003926   0.006501  -0.056292
   64  C  5  Y    0.000038   0.000128   0.004094   0.173767  -0.093657
   65  C  5  Z    0.000010  -0.000002   0.000111   0.003418  -0.000594
   66  C  5  S    0.003920   0.005237   0.018874   0.089393   0.050125
   67  C  5  X    0.003145  -0.003566   0.003374   0.004011  -0.015426
   68  C  5  Y   -0.001419   0.000397  -0.017543  -0.060188  -0.002372
   69  C  5  Z   -0.000110   0.000029  -0.000338  -0.001103   0.000216
   70  C  5 XX   -0.000314  -0.000341  -0.000056  -0.018183   0.010822
   71  C  5 YY   -0.000256  -0.000292   0.000277   0.021057  -0.007555
   72  C  5 ZZ   -0.000122  -0.000144  -0.000697  -0.020065  -0.002138
   73  C  5 XY    0.000133  -0.000193   0.000175   0.001910   0.002197
   74  C  5 XZ    0.000005  -0.000001  -0.000017   0.000058  -0.000064
   75  C  5 YZ   -0.000007   0.000005   0.000025   0.000818  -0.000233
   76  C  6  S    0.000045   0.000132  -0.016068  -0.004406  -0.098803
   77  C  6  S   -0.000114  -0.000080   0.029276   0.008332   0.188117
   78  C  6  X   -0.000045  -0.000056  -0.005843   0.005253   0.015263
   79  C  6  Y    0.000008   0.000072  -0.021889  -0.001667  -0.053470
   80  C  6  Z   -0.000005  -0.000001   0.000135   0.000009   0.000278
   81  C  6  S    0.000751  -0.000746  -0.000321  -0.000499   0.151286
   82  C  6  X    0.000078  -0.000151  -0.008774   0.005033  -0.004130
   83  C  6  Y   -0.000352   0.000171  -0.000621  -0.000063  -0.000163
   84  C  6  Z    0.000057   0.000001   0.000355   0.000213  -0.000263
   85  C  6 XX   -0.000028   0.000036  -0.000359   0.001078  -0.002268
   86  C  6 YY   -0.000007   0.000066   0.005094   0.000140   0.004811
   87  C  6 ZZ   -0.000051  -0.000042  -0.001333  -0.000031  -0.001015
   88  C  6 XY    0.000022   0.000011   0.001601  -0.000500  -0.002679
   89  C  6 XZ    0.000002  -0.000000   0.000011   0.000012  -0.000026
   90  C  6 YZ   -0.000003  -0.000001  -0.000051  -0.000005  -0.000060
   91  C  7  S    0.992882   0.000650  -0.000582  -0.020009  -0.026960
   92  C  7  S    0.050440  -0.000117   0.001876   0.037563   0.051151
   93  C  7  X   -0.000069  -0.000001  -0.000116  -0.018548  -0.018697
   94  C  7  Y   -0.000016  -0.000001   0.000323   0.020930  -0.002274
   95  C  7  Z    0.000059   0.000000  -0.000120  -0.000000   0.000033
   96  C  7  S   -0.018130   0.001170  -0.011369  -0.003279   0.048545
   97  C  7  X    0.001316  -0.000284   0.004408   0.011753  -0.005361
   98  C  7  Y   -0.000871   0.000473  -0.001160   0.009118  -0.001562
   99  C  7  Z   -0.000021  -0.000007   0.001124   0.002084  -0.000113
  100  C  7 XX   -0.009282   0.000007  -0.000202   0.002521   0.001645
  101  C  7 YY   -0.009250   0.000022   0.000178   0.003345  -0.001147
  102  C  7 ZZ   -0.009169  -0.000054  -0.000026  -0.000722  -0.000321
  103  C  7 XY    0.000067  -0.000014   0.000009  -0.005063  -0.000006
  104  C  7 XZ   -0.000003  -0.000003   0.000004  -0.000230   0.000153
  105  C  7 YZ    0.000003  -0.000007  -0.000013  -0.000330   0.000291
  106  H  8  S   -0.000054  -0.000408   0.004506   0.006641   0.059058
  107  H  8  S   -0.000028   0.001194  -0.003309   0.009055  -0.001424
  108  H  9  S   -0.000037  -0.000006   0.004752   0.003648   0.053898
  109  H  9  S   -0.000047   0.000061   0.001315   0.002594   0.005259
  110  H 10  S   -0.000016   0.000029   0.008478   0.001129   0.049210
  111  H 10  S    0.000063   0.000123   0.004823   0.001502   0.001236
  112  H 11  S   -0.000034  -0.000004   0.004762   0.003793   0.053968
  113  H 11  S    0.000015   0.000056   0.001693   0.002868   0.005160
  114  H 12  S    0.000001  -0.000021   0.000442   0.006760   0.018574
  115  H 12  S    0.002658   0.000029   0.001864   0.004847   0.003806
  116  H 13  S   -0.000010  -0.000039   0.000483   0.008861   0.011110
  117  H 13  S    0.002687  -0.000038   0.000837   0.000103   0.000222
  118  H 14  S   -0.000042  -0.000030   0.000432   0.007476   0.014426
  119  H 14  S    0.002795  -0.000016  -0.000378  -0.000275   0.001649
  120  H 15  S   -0.000022  -0.000008   0.124259  -0.006713  -0.070705
  121  H 15  S    0.000043   0.000170  -0.003065  -0.000451  -0.009612

                     11         12         13         14         15
                   -0.7413    -0.7001    -0.6099    -0.5201    -0.5047
                     A          A          A          A          A   
    1  O  1  S   -0.018870   0.005727   0.015671  -0.009303  -0.037132
    2  O  1  S    0.045303  -0.011973  -0.038009   0.022201   0.085436
    3  O  1  X   -0.022862  -0.086585   0.347604   0.316242   0.040787
    4  O  1  Y   -0.014584   0.046573  -0.020285  -0.008902  -0.191742
    5  O  1  Z    0.000288   0.000138  -0.002191  -0.002740   0.000641
    6  O  1  S    0.047740  -0.022730  -0.041190   0.042116   0.130042
    7  O  1  X   -0.016373  -0.041591   0.177594   0.165725   0.014949
    8  O  1  Y   -0.007497   0.025119  -0.013158  -0.004357  -0.118602
    9  O  1  Z    0.000072  -0.000058  -0.001098  -0.001556   0.000407
   10  O  1 XX    0.001666  -0.004765  -0.000287  -0.007610   0.004599
   11  O  1 YY   -0.001630   0.007383  -0.004963  -0.001709  -0.016947
   12  O  1 ZZ    0.000627  -0.000233   0.000077   0.000628   0.002926
   13  O  1 XY   -0.004012  -0.004583   0.024662   0.018719  -0.002586
   14  O  1 XZ   -0.000007   0.000017  -0.000055  -0.000014   0.000009
   15  O  1 YZ    0.000034  -0.000030  -0.000144  -0.000172   0.000087
   16  O  2  S    0.051304   0.006885  -0.031987   0.040176  -0.044755
   17  O  2  S   -0.114461  -0.016292   0.073656  -0.093855   0.097394
   18  O  2  X    0.022666   0.022484   0.049185   0.017867   0.004372
   19  O  2  Y   -0.008422   0.005512   0.027113  -0.101723   0.126877
   20  O  2  Z    0.000436   0.000011   0.000065  -0.000849   0.001308
   21  O  2  S   -0.129050  -0.016238   0.088632  -0.110840   0.160139
   22  O  2  X    0.010943   0.006543   0.024233   0.006649   0.003892
   23  O  2  Y   -0.009799   0.002652   0.019417  -0.062335   0.066834
   24  O  2  Z   -0.000423  -0.000344   0.000031  -0.000752   0.001009
   25  O  2 XX    0.000797   0.000354  -0.000223  -0.002508  -0.000731
   26  O  2 YY    0.004781  -0.000374  -0.004607   0.010041  -0.012633
   27  O  2 ZZ    0.000490  -0.000118   0.001008  -0.002203   0.000376
   28  O  2 XY   -0.002128  -0.003146  -0.005109  -0.000526  -0.001521
   29  O  2 XZ   -0.000090  -0.000041  -0.000082  -0.000007   0.000010
   30  O  2 YZ    0.000081   0.000041  -0.000042   0.000161  -0.000227
   31  C  3  S    0.035260   0.033400  -0.086227   0.031222   0.071386
   32  C  3  S   -0.072522  -0.070544   0.187818  -0.066742  -0.162584
   33  C  3  X    0.017316  -0.101737  -0.104293  -0.274955   0.040147
   34  C  3  Y   -0.076285   0.171434  -0.103639  -0.058137  -0.199624
   35  C  3  Z    0.000452  -0.001043   0.000845   0.000523   0.000957
   36  C  3  S   -0.032365  -0.055732   0.140862  -0.073211  -0.109836
   37  C  3  X    0.007387  -0.020524  -0.023377  -0.058838   0.029538
   38  C  3  Y   -0.024657   0.014401   0.008348  -0.005238  -0.075082
   39  C  3  Z    0.000652   0.000269  -0.000022   0.000028   0.000414
   40  C  3 XX    0.005961  -0.005353  -0.007208   0.002519  -0.000886
   41  C  3 YY   -0.005378   0.010477  -0.000030   0.006484   0.010740
   42  C  3 ZZ    0.003443   0.003628  -0.009973  -0.001204   0.004870
   43  C  3 XY    0.001432  -0.000026   0.011853   0.018322   0.000807
   44  C  3 XZ   -0.000004   0.000028  -0.000068  -0.000075   0.000031
   45  C  3 YZ    0.000056  -0.000071  -0.000085  -0.000099  -0.000038
   46  C  4  S   -0.044393   0.102544   0.067219   0.029817  -0.046125
   47  C  4  S    0.086919  -0.200585  -0.132909  -0.059476   0.094503
   48  C  4  X    0.065318   0.061196  -0.173680   0.206020  -0.033329
   49  C  4  Y   -0.019013  -0.005106  -0.017481  -0.067383  -0.204217
   50  C  4  Z    0.000012  -0.000080   0.000437   0.000100   0.001132
   51  C  4  S    0.051047  -0.157546  -0.119697  -0.053568   0.066309
   52  C  4  X    0.023430   0.013975  -0.057437   0.032639   0.002782
   53  C  4  Y   -0.011083   0.018147  -0.007024  -0.010395  -0.087620
   54  C  4  Z   -0.000931  -0.000742   0.000179  -0.000065   0.000544
   55  C  4 XX    0.003342  -0.000798   0.005198   0.007231  -0.006933
   56  C  4 YY   -0.000641  -0.000722  -0.004661  -0.000368   0.007227
   57  C  4 ZZ   -0.004169   0.009556   0.005705   0.002214  -0.003564
   58  C  4 XY    0.003799   0.000882  -0.007647   0.011278   0.000683
   59  C  4 XZ   -0.000079  -0.000020   0.000048  -0.000051  -0.000000
   60  C  4 YZ   -0.000086   0.000090   0.000137  -0.000022  -0.000089
   61  C  5  S   -0.076894  -0.003329   0.066427  -0.094131   0.058998
   62  C  5  S    0.157886   0.007146  -0.142698   0.209358  -0.134537
   63  C  5  X    0.060985   0.111753   0.141129   0.018566   0.002918
   64  C  5  Y   -0.150531  -0.021809   0.093602  -0.086317  -0.011220
   65  C  5  Z   -0.000438  -0.000309   0.000143   0.000421  -0.001192
   66  C  5  S    0.107134  -0.003426  -0.106227   0.187051  -0.107697
   67  C  5  X    0.004951   0.025199   0.032476   0.012697  -0.010772
   68  C  5  Y   -0.027366   0.000414   0.023802  -0.068568   0.014026
   69  C  5  Z    0.000994   0.000695   0.000411  -0.000288  -0.001158
   70  C  5 XX    0.009328  -0.000031  -0.000314  -0.008525   0.000362
   71  C  5 YY   -0.008926  -0.000757   0.006875  -0.006263   0.009805
   72  C  5 ZZ   -0.005897   0.000239   0.004952  -0.006434   0.004232
   73  C  5 XY   -0.005111  -0.008910  -0.006586   0.003056   0.003112
   74  C  5 XZ    0.000071   0.000134   0.000113   0.000066  -0.000154
   75  C  5 YZ   -0.000280  -0.000046   0.000141  -0.000072   0.000114
   76  C  6  S    0.088183  -0.133623   0.028264  -0.019694  -0.039476
   77  C  6  S   -0.168975   0.258010  -0.053170   0.040526   0.079236
   78  C  6  X    0.002331  -0.028873  -0.001065  -0.087060  -0.013704
   79  C  6  Y    0.016403   0.016004  -0.056355   0.064307   0.256665
   80  C  6  Z   -0.000056  -0.000184   0.000584  -0.000696  -0.002184
   81  C  6  S   -0.151707   0.261917  -0.078601   0.047409   0.095631
   82  C  6  X    0.003156  -0.020591  -0.000733  -0.050026  -0.003943
   83  C  6  Y    0.001819  -0.001872  -0.003923   0.027110   0.099465
   84  C  6  Z   -0.000367  -0.000084  -0.000079  -0.000437  -0.001084
   85  C  6 XX   -0.000007   0.001788  -0.002926   0.004112   0.007842
   86  C  6 YY    0.000084  -0.005299   0.007344  -0.004262  -0.014864
   87  C  6 ZZ   -0.000108   0.001536  -0.001966   0.000575   0.010598
   88  C  6 XY   -0.000001   0.002061   0.000592   0.004123   0.001531
   89  C  6 XZ   -0.000009   0.000015   0.000033   0.000141  -0.000053
   90  C  6 YZ    0.000025   0.000028  -0.000055   0.000040   0.000152
   91  C  7  S   -0.149861  -0.096662  -0.059390   0.044093  -0.009437
   92  C  7  S    0.286249   0.186074   0.118066  -0.087732   0.017410
   93  C  7  X   -0.041245   0.005766   0.076167  -0.166161   0.047864
   94  C  7  Y    0.011294   0.005400  -0.006675   0.075066  -0.062965
   95  C  7  Z    0.001032   0.001077   0.001085  -0.000504  -0.004628
   96  C  7  S    0.262192   0.179706   0.120352  -0.118320   0.027565
   97  C  7  X   -0.008963   0.001181   0.028443  -0.057577   0.009971
   98  C  7  Y   -0.003235  -0.003637  -0.001164   0.024945  -0.019993
   99  C  7  Z   -0.000810  -0.001086  -0.000434   0.001042   0.001832
  100  C  7 XX    0.001346  -0.002085  -0.006613   0.008094  -0.003272
  101  C  7 YY   -0.001265  -0.000044   0.001641  -0.001352   0.001136
  102  C  7 ZZ    0.000358   0.001688   0.004280  -0.007601   0.001767
  103  C  7 XY    0.000055   0.001506   0.004378  -0.009733   0.005076
  104  C  7 XZ    0.000077  -0.000180  -0.000717   0.000595   0.000495
  105  C  7 YZ    0.000494  -0.000022  -0.000986   0.000833   0.000857
  106  H  8  S    0.038338  -0.065525  -0.050048   0.013140   0.150399
  107  H  8  S    0.012283  -0.009512  -0.018682   0.017142   0.096498
  108  H  9  S   -0.053974   0.087405  -0.031459   0.012655   0.089794
  109  H  9  S   -0.011653   0.022307  -0.011743   0.003795   0.055995
  110  H 10  S   -0.056587   0.105431  -0.033341   0.065606   0.080281
  111  H 10  S   -0.012709   0.030279  -0.022304   0.029655   0.045214
  112  H 11  S   -0.053965   0.087074  -0.031778   0.011679   0.090552
  113  H 11  S   -0.012093   0.022317  -0.012106   0.003358   0.056012
  114  H 12  S    0.094828   0.061541   0.041658  -0.059626   0.040125
  115  H 12  S    0.018661   0.012030   0.014000  -0.031133   0.031736
  116  H 13  S    0.085933   0.066924   0.067313  -0.081018   0.012624
  117  H 13  S    0.016060   0.017309   0.026846  -0.044507   0.012753
  118  H 14  S    0.091661   0.066775   0.058339  -0.072961   0.018086
  119  H 14  S    0.019085   0.017978   0.023754  -0.041468   0.011413
  120  H 15  S    0.014183   0.047096  -0.164414  -0.139356  -0.054263
  121  H 15  S   -0.000000   0.020637  -0.074872  -0.080060  -0.023738

                     16         17         18         19         20
                   -0.4580    -0.4450    -0.4444    -0.4263    -0.4079
                     A          A          A          A          A   
    1  O  1  S    0.056606   0.003373   0.018117   0.001653  -0.008311
    2  O  1  S   -0.122814  -0.007296  -0.039006  -0.003784   0.021883
    3  O  1  X   -0.014403  -0.013771  -0.126680   0.000440  -0.036199
    4  O  1  Y    0.294369   0.009138   0.016386   0.008956  -0.045797
    5  O  1  Z   -0.002533   0.200255  -0.023278  -0.121686  -0.002928
    6  O  1  S   -0.243642  -0.015899  -0.093034  -0.006190   0.021196
    7  O  1  X   -0.002958  -0.006775  -0.068783   0.001526  -0.038907
    8  O  1  Y    0.179663   0.004630   0.003519   0.005209  -0.030474
    9  O  1  Z   -0.001659   0.132206  -0.015279  -0.082871  -0.002068
   10  O  1 XX   -0.005510   0.000706   0.006197  -0.000089   0.000870
   11  O  1 YY    0.026512   0.000902   0.002483   0.000537  -0.001323
   12  O  1 ZZ   -0.002141  -0.000029   0.000884  -0.000067   0.001706
   13  O  1 XY    0.000662  -0.000852  -0.008053  -0.000037  -0.001276
   14  O  1 XZ   -0.000008   0.004148  -0.000472  -0.001912  -0.000084
   15  O  1 YZ   -0.000225   0.012974  -0.001518  -0.007733  -0.000179
   16  O  2  S   -0.053683   0.002262   0.030597  -0.002310  -0.042050
   17  O  2  S    0.112755  -0.003887  -0.061517   0.006074   0.087838
   18  O  2  X    0.041593   0.023433   0.205123  -0.005643   0.139068
   19  O  2  Y    0.157621  -0.014813  -0.148637   0.004963   0.283542
   20  O  2  Z    0.000230   0.119216  -0.017890   0.134124   0.010001
   21  O  2  S    0.226747  -0.011860  -0.135590   0.006763   0.166531
   22  O  2  X    0.018397   0.013655   0.123079  -0.003797   0.084413
   23  O  2  Y    0.073065  -0.006552  -0.073796   0.004237   0.157570
   24  O  2  Z    0.000654   0.069832  -0.010592   0.077034   0.005974
   25  O  2 XX   -0.004332   0.000113  -0.000180   0.000247   0.000779
   26  O  2 YY   -0.014605   0.001490   0.012518   0.000020  -0.017796
   27  O  2 ZZ   -0.000768   0.000064   0.000860   0.000243   0.001872
   28  O  2 XY   -0.001317  -0.001691  -0.015122   0.000513  -0.012709
   29  O  2 XZ   -0.000018  -0.001443  -0.000140   0.000696  -0.000125
   30  O  2 YZ   -0.000103  -0.008779   0.001300  -0.010743  -0.000822
   31  C  3  S   -0.011236  -0.001196  -0.012789   0.000869  -0.017887
   32  C  3  S    0.033431   0.003329   0.032409  -0.001110   0.038046
   33  C  3  X   -0.163827   0.011443   0.121390  -0.004732   0.013557
   34  C  3  Y    0.068852  -0.006980  -0.063213  -0.004962   0.107801
   35  C  3  Z   -0.001626   0.212115  -0.025496  -0.100241  -0.003572
   36  C  3  S   -0.035105  -0.003738   0.006548  -0.014606   0.140303
   37  C  3  X   -0.099601  -0.002904   0.000021  -0.008741   0.033675
   38  C  3  Y    0.016322   0.000946  -0.019223   0.006081  -0.020784
   39  C  3  Z   -0.000615   0.099328  -0.012677  -0.048864  -0.000460
   40  C  3 XX    0.004576  -0.000461  -0.003837   0.000362  -0.007488
   41  C  3 YY   -0.002328  -0.000020  -0.000323  -0.000322   0.006155
   42  C  3 ZZ   -0.001200   0.000193   0.001365   0.000096  -0.000095
   43  C  3 XY   -0.012003  -0.002297  -0.016941  -0.000350   0.004538
   44  C  3 XZ    0.000029  -0.002935   0.000492   0.004873   0.000059
   45  C  3 YZ    0.000029   0.002898  -0.000373  -0.002774  -0.000069
   46  C  4  S   -0.031665  -0.003638  -0.019956  -0.002328   0.019055
   47  C  4  S    0.055663   0.007406   0.039567   0.004874  -0.037836
   48  C  4  X    0.064332  -0.021625  -0.195205   0.002537  -0.002920
   49  C  4  Y   -0.216131  -0.018523  -0.111858  -0.004781  -0.058426
   50  C  4  Z   -0.000711   0.115946  -0.011656   0.010345  -0.000028
   51  C  4  S    0.184207   0.012269   0.057941   0.012995  -0.095994
   52  C  4  X    0.037478  -0.013122  -0.078226  -0.012472   0.080501
   53  C  4  Y   -0.026832  -0.006107  -0.045040   0.001060  -0.053890
   54  C  4  Z   -0.000919   0.058257  -0.004727   0.009083  -0.001146
   55  C  4 XX   -0.006312  -0.000212  -0.001533   0.000061   0.002728
   56  C  4 YY    0.010053   0.000481   0.001480   0.000223  -0.000745
   57  C  4 ZZ   -0.003345  -0.000229  -0.001406  -0.000030   0.001644
   58  C  4 XY   -0.001269  -0.000849  -0.006788   0.000130  -0.007384
   59  C  4 XZ   -0.000059  -0.003161   0.000559   0.007067   0.000185
   60  C  4 YZ   -0.000128   0.005405  -0.000754   0.000178  -0.000035
   61  C  5  S    0.045481  -0.000291  -0.015086   0.002425   0.007389
   62  C  5  S   -0.099795   0.000457   0.037989  -0.007281  -0.017698
   63  C  5  X   -0.002802   0.033308   0.285859  -0.008380   0.219293
   64  C  5  Y   -0.062546   0.007207   0.088176  -0.002590  -0.242175
   65  C  5  Z   -0.005452   0.141865  -0.015672   0.176338   0.002208
   66  C  5  S   -0.154740   0.003598   0.020509   0.006058  -0.034800
   67  C  5  X    0.047516   0.009597   0.072978  -0.001912   0.050228
   68  C  5  Y   -0.010912   0.000039   0.018177  -0.004640   0.009381
   69  C  5  Z   -0.004218   0.069786  -0.008260   0.082979   0.002239
   70  C  5 XX   -0.004016  -0.000061   0.001002  -0.000443   0.005689
   71  C  5 YY    0.010279  -0.000698  -0.004235  -0.000382  -0.002557
   72  C  5 ZZ    0.004414   0.000334  -0.002396   0.000985   0.003992
   73  C  5 XY    0.005185   0.000774   0.007024  -0.000227  -0.001549
   74  C  5 XZ   -0.000308   0.000360   0.000021   0.008546   0.000426
   75  C  5 YZ    0.000275   0.002338  -0.000704   0.001091  -0.000011
   76  C  6  S    0.016095  -0.000626  -0.005532   0.000826  -0.008026
   77  C  6  S   -0.034791   0.001252   0.010718  -0.001504   0.020809
   78  C  6  X   -0.173179  -0.017793  -0.110926  -0.013071   0.239506
   79  C  6  Y   -0.117576   0.005565   0.029221   0.001042  -0.087073
   80  C  6  Z   -0.000191   0.302486  -0.038676  -0.193304  -0.002619
   81  C  6  S   -0.039828   0.000897   0.018543  -0.006663   0.038052
   82  C  6  X   -0.063971  -0.009352  -0.056266  -0.003305   0.100535
   83  C  6  Y   -0.072580   0.003268   0.014743   0.000974  -0.036802
   84  C  6  Z    0.001071   0.157169  -0.019755  -0.108674  -0.002875
   85  C  6 XX    0.005594   0.000181   0.004757   0.001229  -0.015088
   86  C  6 YY    0.003740  -0.000303  -0.001953  -0.000288   0.006849
   87  C  6 ZZ   -0.011870   0.000147  -0.002405  -0.000798   0.007379
   88  C  6 XY    0.000767  -0.000563  -0.004607  -0.000121   0.005100
   89  C  6 XZ    0.000430   0.011082  -0.001132  -0.006276  -0.000728
   90  C  6 YZ   -0.000028   0.004686  -0.000618  -0.004314  -0.000098
   91  C  7  S    0.002345   0.001320   0.009745   0.000163   0.002921
   92  C  7  S   -0.006371  -0.002318  -0.017642  -0.000145  -0.007043
   93  C  7  X   -0.010726  -0.002929  -0.022024   0.003117  -0.233677
   94  C  7  Y   -0.090848   0.030896   0.265203  -0.005405   0.096996
   95  C  7  Z   -0.016598   0.161952  -0.015959   0.353337   0.006994
   96  C  7  S   -0.023667  -0.004697  -0.017001  -0.005599   0.039906
   97  C  7  X   -0.017100  -0.001247  -0.004785   0.000483  -0.133226
   98  C  7  Y   -0.045092   0.013662   0.129567  -0.004424   0.053546
   99  C  7  Z    0.000301   0.072057  -0.006626   0.167898   0.005046
  100  C  7 XX   -0.001342  -0.001370   0.004005  -0.004290   0.005280
  101  C  7 YY    0.002030  -0.004639  -0.002882  -0.009565  -0.002355
  102  C  7 ZZ   -0.001117   0.005619  -0.003391   0.013649  -0.007789
  103  C  7 XY    0.003632  -0.003757  -0.007295  -0.006364  -0.008315
  104  C  7 XZ    0.001646   0.001299  -0.004867   0.007285   0.001212
  105  C  7 YZ    0.003011   0.000124  -0.007602   0.000618   0.001571
  106  H  8  S    0.158925   0.012919   0.071812   0.004134   0.015023
  107  H  8  S    0.117884   0.007595   0.037590   0.002785   0.004444
  108  H  9  S   -0.082211   0.144043  -0.037633  -0.097692   0.044632
  109  H  9  S   -0.043521   0.095368  -0.038048  -0.057158   0.043316
  110  H 10  S    0.070909   0.009128   0.082195   0.010448  -0.165066
  111  H 10  S    0.077976   0.006852   0.063771   0.010880  -0.158334
  112  H 11  S   -0.084383  -0.147871  -0.002709   0.088948   0.051846
  113  H 11  S   -0.043945  -0.100258  -0.014588   0.051490   0.046946
  114  H 12  S    0.055545  -0.056056  -0.144786  -0.084255  -0.038305
  115  H 12  S    0.050719  -0.041433  -0.099802  -0.064059  -0.033545
  116  H 13  S   -0.023852  -0.046660   0.056717  -0.118672  -0.080505
  117  H 13  S   -0.003259  -0.033585   0.038881  -0.087055  -0.053885
  118  H 14  S   -0.008386   0.087383  -0.041411   0.207707  -0.057840
  119  H 14  S   -0.004373   0.065834  -0.029535   0.158269  -0.044349
  120  H 15  S    0.082149   0.009741   0.066252   0.002521  -0.008243
  121  H 15  S    0.054349   0.008107   0.056785   0.002072  -0.020887

                     21         22         23         24         25
                   -0.3782    -0.3710    -0.3694    -0.3514    -0.3402
                     A          A          A          A          A   
    1  O  1  S    0.006869   0.001008  -0.007904   0.043151   0.001821
    2  O  1  S   -0.013496  -0.002292   0.017846  -0.087560  -0.003497
    3  O  1  X    0.066950   0.000616   0.029031   0.041917   0.004185
    4  O  1  Y    0.153648   0.008048  -0.068814   0.420967   0.022848
    5  O  1  Z    0.011684   0.486751   0.037245  -0.003032  -0.094194
    6  O  1  S   -0.013045  -0.003801   0.026700  -0.180408  -0.007293
    7  O  1  X    0.041088   0.001027   0.020265   0.050544   0.003588
    8  O  1  Y    0.102824   0.005452  -0.044975   0.280816   0.015801
    9  O  1  Z    0.008750   0.345662   0.026633  -0.001904  -0.073836
   10  O  1 XX   -0.005953   0.000112   0.000721   0.004310   0.000158
   11  O  1 YY    0.010129   0.000544  -0.005155   0.022303   0.001127
   12  O  1 ZZ   -0.001785  -0.000253   0.000952  -0.002782  -0.000121
   13  O  1 XY    0.003091   0.000030   0.001458  -0.003168  -0.000102
   14  O  1 XZ    0.000156   0.003956   0.000321  -0.000068   0.000029
   15  O  1 YZ    0.000637   0.025089   0.001942  -0.000065  -0.005219
   16  O  2  S    0.006786   0.002787  -0.043370   0.002983   0.000004
   17  O  2  S   -0.019779  -0.005409   0.086391  -0.007912  -0.002157
   18  O  2  X   -0.086952   0.002613  -0.003155  -0.019642   0.000657
   19  O  2  Y    0.020461  -0.022724   0.342412   0.029837  -0.001040
   20  O  2  Z   -0.011175  -0.014816  -0.008564  -0.023621   0.431965
   21  O  2  S   -0.012844  -0.012761   0.188125  -0.012398   0.007248
   22  O  2  X   -0.055246   0.001228   0.002746  -0.014438   0.001363
   23  O  2  Y    0.011226  -0.012838   0.194508   0.020580  -0.003450
   24  O  2  Z   -0.007698  -0.010353  -0.006075  -0.015114   0.278344
   25  O  2 XX    0.001859  -0.000045   0.000185   0.000820  -0.000441
   26  O  2 YY   -0.002361   0.001426  -0.020781  -0.000975  -0.000024
   27  O  2 ZZ   -0.001109   0.000013   0.000560   0.000214  -0.001581
   28  O  2 XY    0.006014  -0.000248   0.001102  -0.000637  -0.000150
   29  O  2 XZ    0.000044   0.000621  -0.000010   0.000176  -0.002473
   30  O  2 YZ    0.000581  -0.000006   0.000461   0.001558  -0.026670
   31  C  3  S    0.022071  -0.000900   0.001292  -0.005510  -0.000246
   32  C  3  S   -0.050323   0.002032  -0.001329   0.013743   0.000112
   33  C  3  X   -0.160595   0.000623   0.058425   0.031268   0.002848
   34  C  3  Y    0.049500   0.000830  -0.064720  -0.299323  -0.018130
   35  C  3  Z    0.005379   0.173241   0.013460  -0.000149   0.001866
   36  C  3  S   -0.078501   0.002812  -0.009541  -0.013020   0.004949
   37  C  3  X   -0.047140   0.002141   0.001344  -0.000586   0.003609
   38  C  3  Y    0.040548   0.000280  -0.009467   0.014909  -0.000413
   39  C  3  Z    0.001404   0.110457   0.007590  -0.001851   0.011256
   40  C  3 XX    0.004534  -0.000535   0.007520   0.019556   0.001634
   41  C  3 YY    0.001927   0.000073  -0.007906  -0.021303  -0.001577
   42  C  3 ZZ   -0.000256   0.000234  -0.000022  -0.002165  -0.000255
   43  C  3 XY    0.010452  -0.000191  -0.000665   0.004575   0.000654
   44  C  3 XZ   -0.000494  -0.013754  -0.001155  -0.000504   0.008275
   45  C  3 YZ   -0.000574  -0.018627  -0.001202   0.000498  -0.001098
   46  C  4  S   -0.017745   0.001934  -0.016690  -0.005368  -0.000659
   47  C  4  S    0.034806  -0.004236   0.037947   0.012047   0.001673
   48  C  4  X    0.164545  -0.009109   0.053146  -0.124349  -0.002067
   49  C  4  Y   -0.112111  -0.009889   0.224647   0.121513   0.018083
   50  C  4  Z    0.004057   0.081152   0.001252  -0.009389   0.110021
   51  C  4  S    0.083928  -0.007753   0.079941   0.063672  -0.001000
   52  C  4  X    0.033253  -0.002391   0.022890  -0.079211   0.001340
   53  C  4  Y   -0.029081  -0.002718   0.064985   0.010618   0.002462
   54  C  4  Z    0.004981   0.042602   0.001739  -0.005490   0.058766
   55  C  4 XX   -0.007066  -0.000155   0.007927   0.010833   0.000652
   56  C  4 YY    0.010408   0.000522  -0.014984  -0.015186  -0.001423
   57  C  4 ZZ   -0.001161   0.000059  -0.000427  -0.000181  -0.000145
   58  C  4 XY    0.006452  -0.000375   0.002253   0.001359   0.000242
   59  C  4 XZ   -0.000118  -0.005732  -0.000701  -0.000374   0.005339
   60  C  4 YZ   -0.000294   0.001015  -0.000126  -0.000227   0.005706
   61  C  5  S    0.005672  -0.000476   0.002881  -0.010156  -0.000184
   62  C  5  S   -0.015854   0.001739  -0.013265   0.023057   0.000784
   63  C  5  X   -0.119447   0.010288  -0.092441   0.033699  -0.002523
   64  C  5  Y    0.007943   0.015410  -0.247809  -0.038020  -0.010050
   65  C  5  Z   -0.004741   0.011275  -0.013800  -0.018957   0.284787
   66  C  5  S    0.006509  -0.002306   0.030814   0.051929  -0.003293
   67  C  5  X   -0.026256   0.004245  -0.037852  -0.000558  -0.005420
   68  C  5  Y   -0.008660   0.002045  -0.017123  -0.005923  -0.008384
   69  C  5  Z   -0.003672  -0.000801  -0.005889  -0.010391   0.181271
   70  C  5 XX    0.006543  -0.001461   0.019154   0.002978   0.001348
   71  C  5 YY   -0.006302   0.001188  -0.014429  -0.003861  -0.001397
   72  C  5 ZZ    0.001034  -0.000374   0.004667   0.000321   0.000381
   73  C  5 XY    0.005823  -0.000391   0.001633  -0.006307   0.000253
   74  C  5 XZ   -0.000712  -0.002282  -0.000550   0.000568  -0.007821
   75  C  5 YZ   -0.001690  -0.001720  -0.001572  -0.001147   0.024614
   76  C  6  S   -0.002973  -0.000704   0.015159   0.023794   0.001456
   77  C  6  S    0.007558   0.001327  -0.031575  -0.046534  -0.003026
   78  C  6  X    0.187384   0.012058  -0.219579   0.095708   0.005631
   79  C  6  Y    0.000855  -0.001245   0.041293   0.299070   0.019336
   80  C  6  Z   -0.007859  -0.258594  -0.014924   0.005996  -0.070167
   81  C  6  S    0.004170   0.004488  -0.082022  -0.169499  -0.009981
   82  C  6  X    0.082605   0.003095  -0.076468   0.042402   0.003549
   83  C  6  Y    0.001748   0.000008   0.015850   0.175150   0.011700
   84  C  6  Z   -0.002593  -0.120242  -0.004957   0.005186  -0.068106
   85  C  6 XX   -0.010473  -0.000232   0.015561   0.002228   0.000273
   86  C  6 YY    0.001153  -0.000033  -0.003422  -0.007903  -0.000549
   87  C  6 ZZ    0.007424   0.000112  -0.008494   0.012280   0.000650
   88  C  6 XY    0.009184   0.000326  -0.007167   0.005360   0.000311
   89  C  6 XZ   -0.000890  -0.010618   0.000007  -0.000189  -0.000856
   90  C  6 YZ   -0.000503  -0.015468  -0.000920   0.000502  -0.003199
   91  C  7  S    0.003497   0.000075  -0.005023  -0.005994  -0.000909
   92  C  7  S   -0.006488  -0.000196   0.009987   0.013773   0.000941
   93  C  7  X    0.263992  -0.013399   0.053635  -0.086944   0.005491
   94  C  7  Y    0.231443  -0.019512   0.171119  -0.015880   0.010476
   95  C  7  Z    0.004805  -0.019617  -0.002875   0.009009  -0.219901
   96  C  7  S   -0.032675  -0.000475   0.035555   0.026896   0.008589
   97  C  7  X    0.129420  -0.006766   0.014289  -0.042845   0.011419
   98  C  7  Y    0.099746  -0.010558   0.076594  -0.007797   0.016365
   99  C  7  Z    0.002480  -0.004919  -0.005291   0.002423  -0.122532
  100  C  7 XX    0.007473  -0.000627   0.008852  -0.000864   0.003360
  101  C  7 YY   -0.012759   0.001725  -0.011458   0.001131   0.006312
  102  C  7 ZZ    0.006769  -0.001076   0.001256  -0.001336  -0.009800
  103  C  7 XY    0.007232  -0.000030   0.001967  -0.003382   0.004990
  104  C  7 XZ   -0.007966  -0.000526  -0.004257   0.002244  -0.014867
  105  C  7 YZ   -0.012999   0.001139  -0.007056   0.002006   0.006309
  106  H  8  S    0.096257   0.005545  -0.143600  -0.098537  -0.011588
  107  H  8  S    0.072967   0.007091  -0.156786  -0.137081  -0.014606
  108  H  9  S    0.051018  -0.143096  -0.068039   0.091947  -0.027765
  109  H  9  S    0.045665  -0.129636  -0.039972   0.089049   0.014144
  110  H 10  S   -0.128196  -0.004292   0.148106  -0.026236  -0.000322
  111  H 10  S   -0.121144  -0.006743   0.163614   0.006596   0.002318
  112  H 11  S    0.063988   0.147631  -0.055100   0.086666   0.037898
  113  H 11  S    0.058963   0.131187  -0.025490   0.089124  -0.005543
  114  H 12  S   -0.173356   0.019125  -0.117404   0.018526   0.058441
  115  H 12  S   -0.146592   0.016289  -0.120569   0.010429   0.059785
  116  H 13  S    0.190172  -0.005087   0.087981  -0.045441   0.093812
  117  H 13  S    0.164362  -0.002684   0.084086  -0.044480   0.069208
  118  H 14  S    0.043403  -0.014750   0.003723  -0.006141  -0.154247
  119  H 14  S    0.039666  -0.014574   0.004966  -0.008348  -0.137524
  120  H 15  S    0.005478   0.002780  -0.022695   0.115768   0.005311
  121  H 15  S   -0.022405   0.001579   0.000223   0.068813   0.002795

                     26         27         28         29         30
                   -0.2331    -0.2290    -0.0283     0.0589     0.0784
                     A          A          A          A          A   
    1  O  1  S    0.000926  -0.008963  -0.000161   0.079534   0.002578
    2  O  1  S   -0.001811   0.021812  -0.000282  -0.111540  -0.006506
    3  O  1  X   -0.005753   0.035943  -0.000788   0.195119  -0.017145
    4  O  1  Y   -0.004465   0.027955  -0.001349  -0.199270  -0.004994
    5  O  1  Z   -0.302861  -0.030389  -0.196766   0.000719   0.114703
    6  O  1  S   -0.008682   0.056003   0.004539  -0.953376  -0.019346
    7  O  1  X   -0.004706   0.019324   0.000331   0.307728  -0.022919
    8  O  1  Y   -0.004485   0.026057  -0.000950  -0.338415  -0.005995
    9  O  1  Z   -0.249904  -0.024888  -0.202714   0.000621   0.122785
   10  O  1 XX    0.000486  -0.003162  -0.000177   0.034462   0.001121
   11  O  1 YY   -0.000100   0.001131  -0.000075   0.017142  -0.000536
   12  O  1 ZZ    0.000122  -0.000218  -0.000329   0.037606   0.000132
[...]
              5  O  1  Z      1.09236     1.05906
              6  O  1  S      0.98533     0.44664
              7  O  1  X      0.43056     0.49297
              8  O  1  Y      0.60693     0.65974
              9  O  1  Z      0.71886     0.73816
             10  O  1 XX      0.02136     0.19443
             11  O  1 YY     -0.00200     0.16935
             12  O  1 ZZ     -0.01183     0.15975
             13  O  1 XY      0.01447     0.02277
             14  O  1 XZ      0.00234     0.00563
             15  O  1 YZ      0.00413     0.00484
             16  O  2  S      1.99242     1.97634
             17  O  2  S      0.90453     0.71877
             18  O  2  X      1.12655     1.08350
             19  O  2  Y      0.91673     0.84863
             20  O  2  Z      0.82623     0.77981
             21  O  2  S      1.05127     0.47680
             22  O  2  X      0.67774     0.70726
             23  O  2  Y      0.44354     0.53737
             24  O  2  Z      0.55471     0.59110
             25  O  2 XX     -0.01447     0.16866
             26  O  2 YY     -0.00017     0.19053
             27  O  2 ZZ     -0.00918     0.17290
             28  O  2 XY      0.00673     0.01391
             29  O  2 XZ      0.00040     0.00067
             30  O  2 YZ      0.00954     0.01339
             31  C  3  S      1.99196     1.97577
             32  C  3  S      0.73087     0.36236
             33  C  3  X      0.71018     0.61645
             34  C  3  Y      0.71926     0.62530
             35  C  3  Z      0.54065     0.47846
             36  C  3  S      0.38390     0.27124
             37  C  3  X      0.09330     0.27393
             38  C  3  Y      0.07265     0.30446
             39  C  3  Z      0.32616     0.38994
             40  C  3 XX      0.00413     0.18345
             41  C  3 YY      0.00220     0.16752
             42  C  3 ZZ     -0.02490     0.10408
             43  C  3 XY      0.02557     0.04841
             44  C  3 XZ      0.01587     0.03376
             45  C  3 YZ      0.00734     0.01425
             46  C  4  S      1.99177     1.97737
             47  C  4  S      0.69478     0.36366
             48  C  4  X      0.73838     0.65078
             49  C  4  Y      0.73186     0.64320
             50  C  4  Z      0.64472     0.60018
             51  C  4  S      0.54830     0.30536
             52  C  4  X      0.18004     0.31846
             53  C  4  Y      0.22988     0.40612
             54  C  4  Z      0.49918     0.52913
             55  C  4 XX      0.00401     0.17990
             56  C  4 YY      0.01062     0.16785
             57  C  4 ZZ     -0.02306     0.10912
             58  C  4 XY      0.00857     0.01880
             59  C  4 XZ      0.00390     0.00846
             60  C  4 YZ      0.00204     0.00341
             61  C  5  S      1.99215     1.97296
             62  C  5  S      0.72960     0.36275
             63  C  5  X      0.74072     0.63424
             64  C  5  Y      0.72967     0.63668
             65  C  5  Z      0.47905     0.42256
             66  C  5  S      0.39911     0.27495
             67  C  5  X      0.14598     0.32536
             68  C  5  Y      0.01732     0.27111
             69  C  5  Z      0.28432     0.34824
             70  C  5 XX     -0.00355     0.15696
             71  C  5 YY      0.01102     0.19730
             72  C  5 ZZ     -0.02564     0.10427
             73  C  5 XY      0.03870     0.08874
             74  C  5 XZ      0.00637     0.01311
             75  C  5 YZ      0.01655     0.03315
             76  C  6  S      1.99190     1.97857
             77  C  6  S      0.67477     0.36307
             78  C  6  X      0.74686     0.67464
             79  C  6  Y      0.69612     0.62830
             80  C  6  Z      0.71301     0.63615
             81  C  6  S      0.65484     0.32993
             82  C  6  X      0.40744     0.48685
             83  C  6  Y      0.30618     0.40364
             84  C  6  Z      0.34922     0.48395
             85  C  6 XX      0.00509     0.15048
             86  C  6 YY     -0.00124     0.15276
             87  C  6 ZZ      0.00415     0.15052
             88  C  6 XY      0.00633     0.01225
             89  C  6 XZ      0.00927     0.01644
             90  C  6 YZ      0.00465     0.00952
             91  C  7  S      1.99191     1.97869
             92  C  7  S      0.67981     0.36775
             93  C  7  X      0.70919     0.63872
             94  C  7  Y      0.72121     0.64794
             95  C  7  Z      0.71136     0.63613
             96  C  7  S      0.65069     0.33288
             97  C  7  X      0.32742     0.43306
             98  C  7  Y      0.35337     0.45316
             99  C  7  Z      0.36049     0.48963
            100  C  7 XX      0.00132     0.15311
            101  C  7 YY     -0.00022     0.14743
            102  C  7 ZZ      0.00559     0.15513
            103  C  7 XY      0.00917     0.01627
            104  C  7 XZ      0.00163     0.00309
            105  C  7 YZ      0.00983     0.01811
            106  H  8  S      0.52882     0.48227
            107  H  8  S      0.33962     0.35378
            108  H  9  S      0.52036     0.48023
            109  H  9  S      0.31489     0.35443
            110  H 10  S      0.52107     0.48081
            111  H 10  S      0.31674     0.35524
            112  H 11  S      0.50824     0.46632
            113  H 11  S      0.25603     0.32987
            114  H 12  S      0.52040     0.47989
            115  H 12  S      0.31459     0.35305
            116  H 13  S      0.52205     0.48170
            117  H 13  S      0.30537     0.34915
            118  H 14  S      0.52038     0.48050
            119  H 14  S      0.31459     0.35311
            120  H 15  S      0.47348     0.42972
            121  H 15  S      0.11413     0.21009

          ----- MULLIKEN ATOMIC OVERLAP POPULATIONS -----
          (OFF-DIAGONAL ELEMENTS NEED TO BE MULTIPLIED BY 2)

             1           2           3           4           5

    1    8.1646423
    2    0.0000267   8.0548532
    3    0.3039348  -0.0003374   4.4976062
    4   -0.0445704  -0.0896854   0.5762165   5.3446219
    5    0.0017452   0.5742339  -0.0053139   0.3253431   4.4414462
    6   -0.0721591  -0.0238234   0.3637746  -0.0551453  -0.0107508
    7   -0.0000609  -0.0834826   0.0077746  -0.1340285   0.3349799
    8   -0.0023099   0.0031574  -0.0364711   0.3351963  -0.0368290
    9   -0.0002347   0.0004897  -0.0299769  -0.0009392   0.0004270
   10   -0.0004168   0.0005030  -0.0301590  -0.0004803   0.0004219
   11    0.0028452   0.0410211  -0.0124425  -0.0126054   0.0009266
   12    0.0000001   0.0013739  -0.0002136   0.0042119  -0.0222561
   13    0.0000003   0.0068702  -0.0001626   0.0059086  -0.0207405
   14    0.0000001   0.0013663  -0.0001947   0.0041841  -0.0222460
   15    0.2423580   0.0000168  -0.0348859   0.0067676  -0.0000216

             6           7           8           9          10

    6    5.3335800
    7   -0.0003170   5.3582350
    8    0.0072834  -0.0019343   0.5995592
    9    0.3530122   0.0000076  -0.0001729   0.5616431
   10    0.3513005   0.0000080  -0.0001715  -0.0354133   0.5648010
   11    0.3249669   0.0009380  -0.0000455  -0.0164637  -0.0159444
   12    0.0000086   0.3508803   0.0006775  -0.0000003   0.0000001
   13    0.0000084   0.3488213   0.0000554  -0.0000002  -0.0000002
   14    0.0000068   0.3509415   0.0006624   0.0000001  -0.0000003
   15   -0.0031552   0.0000071  -0.0002218   0.0028697   0.0033524

            11          12          13          14          15

   11    0.4507729
   12   -0.0000258   0.5501454
   13   -0.0000123  -0.0219607   0.5305829
   14   -0.0000239  -0.0278520  -0.0219510   0.5500731
   15    0.0003599  -0.0000002  -0.0000001  -0.0000002   0.3701713

          TOTAL MULLIKEN AND LOWDIN ATOMIC POPULATIONS
       ATOM         MULL.POP.    CHARGE          LOW.POP.     CHARGE
    1 O             8.595801   -0.595801         8.358453   -0.358453
    2 O             8.486583   -0.486583         8.279661   -0.279661
    3 C             5.599149    0.400851         5.849392    0.150608
    4 C             6.264996   -0.264996         6.281802   -0.281802
    5 C             5.561366    0.438634         5.842361    0.157639
    6 C             6.568590   -0.568590         6.477069   -0.477069
    7 C             6.532770   -0.532770         6.471114   -0.471114
    8 H             0.868436    0.131564         0.836051    0.163949
    9 H             0.835248    0.164752         0.834659    0.165341
   10 H             0.837801    0.162199         0.836049    0.163951
   11 H             0.764267    0.235733         0.796185    0.203815
   12 H             0.834989    0.165011         0.832934    0.167066
   13 H             0.827420    0.172580         0.830848    0.169152
   14 H             0.834966    0.165034         0.833611    0.166389
   15 H             0.587618    0.412382         0.639812    0.360188

          -------------------------------
          BOND ORDER AND VALENCE ANALYSIS     BOND ORDER THRESHOLD=0.050
          -------------------------------

                   BOND                       BOND                       BOND
  ATOM PAIR DIST  ORDER      ATOM PAIR DIST  ORDER      ATOM PAIR DIST  ORDER
    1   3  1.362  1.023        1   4  2.318  0.074        1  15  0.970  0.769
    2   3  2.980  0.060        2   5  1.230  1.805        2  11  2.153  0.069
    3   4  1.355  1.697        3   6  1.499  1.020        4   5  1.470  1.067
    4   8  1.087  0.913        5   7  1.524  0.964        6   9  1.100  0.926
    6  10  1.100  0.926        6  11  1.090  0.881        7  12  1.098  0.935
    7  13  1.092  0.945        7  14  1.098  0.934

                       TOTAL       BONDED        FREE
      ATOM            VALENCE     VALENCE     VALENCE
    1 O                 1.927       1.927       0.000
    2 O                 2.031       2.031      -0.000
    3 C                 3.836       3.836       0.000
    4 C                 3.802       3.802      -0.000
    5 C                 3.884       3.884       0.000
    6 C                 3.766       3.766      -0.000
    7 C                 3.783       3.783       0.000
    8 H                 0.942       0.942      -0.000
    9 H                 0.928       0.928       0.000
   10 H                 0.929       0.929      -0.000
   11 H                 0.948       0.948       0.000
   12 H                 0.931       0.931      -0.000
   13 H                 0.941       0.941      -0.000
   14 H                 0.931       0.931      -0.000
   15 H                 0.800       0.800       0.000

          ---------------------
          ELECTROSTATIC MOMENTS
          ---------------------

 POINT   1           X           Y           Z (BOHR)    CHARGE
                 0.022386    0.070559   -0.006376        0.00 (A.U.)
         DX          DY          DZ         /D/  (DEBYE)
    -2.636862   -0.770034    0.384718    2.773806
 ...... END OF PROPERTY EVALUATION ......
 STEP CPU TIME =     0.04 TOTAL CPU TIME =       2291.7 (     38.2 MIN)
 TOTAL WALL CLOCK TIME=       2304.4 SECONDS, CPU UTILIZATION IS    99.45%
  $VIB   
          IVIB=   0 IATOM=   0 ICOORD=   0 E=     -345.5799763982
 -1.383909447E-04 8.380849274E-05-2.756661735E-05-2.450720947E-06 2.643605128E-04
 -1.250205006E-05-8.264486592E-05 6.601644237E-05 6.265784859E-05 7.334348758E-05
  6.743675772E-05-2.204003743E-05-1.864934504E-05-1.545718843E-04-3.296858784E-05
  1.996702273E-05-2.970272204E-04-4.978671515E-04-9.065234084E-05-1.289939182E-04
  9.164637441E-05 3.476938049E-06-6.494242982E-05 1.460995157E-05-8.623532536E-06
  2.067383768E-04 4.537194362E-04-1.468259038E-04-3.091653248E-05-9.779993559E-05
  1.505071644E-04-4.136764132E-05 1.218650953E-04-1.533623880E-05 1.546795773E-05
 -3.327960773E-05 1.408632500E-04 8.779634632E-05-5.136509759E-05-8.061910121E-06
 -1.718756644E-05 4.484996180E-05 1.234779400E-04-5.661769360E-05-1.395958277E-05
 -2.636861800E+00-7.700341159E-01 3.847181572E-01
 ......END OF GEOMETRY SEARCH......
 STEP CPU TIME =     0.00 TOTAL CPU TIME =       2291.7 (     38.2 MIN)
 TOTAL WALL CLOCK TIME=       2304.4 SECONDS, CPU UTILIZATION IS    99.45%
               1156660  WORDS OF DYNAMIC MEMORY USED
 EXECUTION OF GAMESS TERMINATED NORMALLY Thu Apr 30 07:54:50 2026
 DDI: 263640 bytes (0.3 MB / 0 MWords) used by master data server.

 ----------------------------------------
 CPU timing information for all processes
 ========================================
 0: 2284.359 + 7.388 = 2291.748
 ----------------------------------------
 ddikick.x: exited gracefully.
----- accounting info -----
Files used on the master node chemcompute-node-0.novalocal were:
-rw-r--r--. 1 chemcomp chemcomp     1257 Apr 30 07:16 /scratch/1118334/1594896.F05
-rw-rw-r--. 1 chemcomp chemcomp 57344000 Apr 30 07:54 /scratch/1118334/1594896.F10
-rw-rw-r--. 1 chemcomp chemcomp  7462424 Apr 30 07:54 /scratch/1118334/1594896.F22
Thu Apr 30 07:54:53 UTC 2026
0.092u 0.035s 38:27.80 0.0%	0+0k 8+208io 0pf+0w
Finishing Up...
Wrote IR file to: Gamess.ir
vibramans not found, parsing from GAMESS output
Wrote Raman file to: Gamess.raman
Wrote UV-Vis file to: Gamess.uvvis
Wrote Electronic Energy file to: Gamess.energy
Wrote Geometry Optimization file to: Gamess.molden
Wrote Atomic Charges file to: Gamess.charges
Wrote Dipole Moment file to: Gamess.moments
Wrote all Results to: Gamess.cclib
reading wave-function from mo.molden
Loading data from molden type file mo.molden

Converting the regular grid to a vector grid containing 2.07e+05 grid points...

Starting the calculation of the molecular orbitals...
The grid has been separated into 21 slices each having 1.00e+04 grid points.
The calculation will be carried out using only one process.

	The number of subprocesses can be changed with -p


There are 121 contracted Cartesian AOs and 37 MOs to be calculated.
	Finished 10 % (4 slices in 0.392 s)
	Finished 20 % (2 slices in 0.175 s)
	Finished 30 % (2 slices in 0.171 s)
	Finished 40 % (2 slices in 0.170 s)
	Finished 50 % (2 slices in 0.170 s)
	Finished 60 % (2 slices in 0.171 s)
	Finished 70 % (2 slices in 0.174 s)
	Finished 80 % (2 slices in 0.177 s)
	Finished 90 % (2 slices in 0.186 s)
Converting the output from a vector grid to a regular grid...

Norm of the MOs:
	1.085099	MO 1.A (Occ = 2.00, E = -19.1932 E_h)
	0.641085	MO 2.A (Occ = 2.00, E = -19.1133 E_h)
	0.883859	MO 3.A (Occ = 2.00, E = -10.2692 E_h)
	1.014398	MO 4.A (Occ = 2.00, E = -10.2600 E_h)
	0.956472	MO 5.A (Occ = 2.00, E = -10.1905 E_h)
	1.089908	MO 6.A (Occ = 2.00, E = -10.1743 E_h)
	0.889249	MO 7.A (Occ = 2.00, E = -10.1722 E_h)
	1.004681	MO 8.A (Occ = 2.00, E = -1.0746 E_h)
	0.986489	MO 9.A (Occ = 2.00, E = -1.0114 E_h)
	0.995401	MO 10.A (Occ = 2.00, E = -0.7894 E_h)
	0.999739	MO 11.A (Occ = 2.00, E = -0.7402 E_h)
	0.999294	MO 12.A (Occ = 2.00, E = -0.7023 E_h)
	0.998352	MO 13.A (Occ = 2.00, E = -0.6154 E_h)
	0.999267	MO 14.A (Occ = 2.00, E = -0.5197 E_h)
	0.998460	MO 15.A (Occ = 2.00, E = -0.5061 E_h)
	0.998360	MO 16.A (Occ = 2.00, E = -0.4571 E_h)
	0.999838	MO 17.A (Occ = 2.00, E = -0.4474 E_h)
	0.999906	MO 18.A (Occ = 2.00, E = -0.4448 E_h)
	1.000100	MO 19.A (Occ = 2.00, E = -0.4223 E_h)
	0.999630	MO 20.A (Occ = 2.00, E = -0.4084 E_h)
	0.999907	MO 21.A (Occ = 2.00, E = -0.3799 E_h)
	0.999251	MO 22.A (Occ = 2.00, E = -0.3743 E_h)
	0.999484	MO 23.A (Occ = 2.00, E = -0.3711 E_h)
	0.999787	MO 24.A (Occ = 2.00, E = -0.3558 E_h)
	1.000427	MO 25.A (Occ = 2.00, E = -0.3413 E_h)
	0.999879	MO 26.A (Occ = 2.00, E = -0.2321 E_h)
	1.000840	MO 27.A (Occ = 2.00, E = -0.2299 E_h)
	1.000154	MO 28.A (Occ = 0.00, E = -0.0309 E_h)
	1.000786	MO 29.A (Occ = 0.00, E = +0.0587 E_h)
	1.000133	MO 30.A (Occ = 0.00, E = +0.0813 E_h)
	1.000023	MO 31.A (Occ = 0.00, E = +0.1119 E_h)
	1.000450	MO 32.A (Occ = 0.00, E = +0.1292 E_h)
	0.999928	MO 33.A (Occ = 0.00, E = +0.1622 E_h)
	0.999874	MO 34.A (Occ = 0.00, E = +0.1671 E_h)
	1.000131	MO 35.A (Occ = 0.00, E = +0.1676 E_h)
	0.999771	MO 36.A (Occ = 0.00, E = +0.1981 E_h)
	0.999326	MO 37.A (Occ = 0.00, E = +0.1994 E_h)
[done] wrote 38 entries to mo_cutoffs.json
total density…
JmolData using command options ["-n", "-s", "rho.spt"]
{noDisplay=true, noConsole=true, exit=true, headlessMaxTimeMs=60000, JmolData=true, isDataOnly=true}
Jmol version 16.3.31  2025-07-21 14:08
Operating headless display=null nographicsallowed=true
Executing script from file: rho.spt
jmolapp evalfilearsgs  rho.spt
Executing script: ;exitJmol;
FileManager opening file /data/slurm/159/1594896/rho.spt

FileManager.getAtomSetCollectionFromFile(/data/slurm/159/1594896/Gamess.stdout)
FileManager opening file /data/slurm/159/1594896/Gamess.stdout
The Resolver thinks GamessUS
          *         GAMESS VERSION = 30 JUN 2019 (R1)          *

          1 ELECTRON INTEGRALS
 ...... END OF ONE-ELECTRON INTEGRALS ......
121 molecular orbitals read in model 2
Energy for model 2 = -345.5735850538
Molecular dipole for model 2 = {-1.9793379, -0.573053, 0.022711}
37 molecular orbitals read in model 63
Energy for model 63 = -345.5799763982
Molecular dipole for model 63 = {-2.636862, -0.770034, 0.384718}
Time for openFile(/data/slurm/159/1594896/Gamess.stdout): 242 ms
reading 945 atoms
ModelSet: haveSymmetry:false haveUnitcells:false haveFractionalCoord:false
63 models in this collection. Use getProperty "modelInfo" or getProperty "auxiliaryInfo" to inspect them.
Default Van der Waals type for model set to Babel
945 atoms created
ModelSet: autobonding; use  autobond=false  to not generate bonds automatically
Time for creating model: 39 ms
63 models
121 molecular orbitals in model 1.2
37 molecular orbitals in model 1.63

MO 28
Molecular orbital #1/121 6-31G(d) B3LYP RHF OPTIMIZE
15 atoms will be used in the surface calculation
Maximum number of voxels for index=0 exceeded (117) -- set to 80
Maximum number of voxels for index=1 exceeded (90) -- set to 80
generating isosurface data for MO using cutoff 1.8738136E-4
QuantumCalculation:
 origin = [-5.7627, -4.425, -3.5026999]
 range (Ang) = [11.786227, 9.078583, 7.2251487]
 steps (Bohr)= [0.2784078, 0.21444932, 0.18963167]
 origin(Bohr)= [-10.889868, -8.361995, -6.6191087]
 steps = [0.2784078, 0.21444932, 0.18963167]
 counts= 80 80 72
calculation type: 6-31G(d) B3LYP RHF OPTIMIZE OK.
boundbox corners {-3.9292006 -2.6566412 -1.7485034} {4.149508 2.7019699 1.8768073}
rho created  with cutoff=1.8738136E-4; isosurface count: 1
isosurface full data range -1.0 to 1.0 with color scheme spanning -1.0 to 1.0
#created by Jmol Version 16.3.31  2025-07-21 14:08 on Thu Apr 30 07:54:59 UTC 2026
MO
calculation type: 6-31G(d) B3LYP RHF OPTIMIZE

isosurface resolution for axis 1 set to 6.7875834 points/Angstrom; 80 voxels
isosurface resolution for axis 2 set to 8.811948 points/Angstrom; 80 voxels
isosurface resolution for axis 3 set to 9.965193 points/Angstrom; 72 voxels
460800 voxels total

1 id:rho; model:1.2; vertices:10954; polygons:21904; visible:true; dataRange:[-1.0, 1.0, -1.0, 1.0]; title:isosurface rho cutoff 0.01368873080308927 mo density;

<jvxlSurfaceInfo 
  isModelConnected="true" 
  cutoff="1.8738136E-4" 
  isCutoffAbsolute="true" 
  pointsPerAngstrom="6.7875834" 
  nBytesData="40487" 
  isXLowToHigh="false" 
  nSurfaceInts="3754" 
  nBytesUncompressedEdgeData="10953" 
  nBytesUncompressedColorData="25600" 
  precisionColor="true" 
  bicolorMap="true" 
  colorNegative="[xff0000]" 
  colorPositive="[x0000ff]" 
  color="[xffa500]" 
  translucency="0.0" 
  rendering="fill noMesh noDots notFrontOnly frontlit" 
  slabbable="true" 
  xyzMin="{-3.9292006 -2.6566412 -1.7485034}" 
  xyzMax="{4.149508 2.7019699 1.8768073}" 
  approximateCompressionRatio="not calculated" 
  jmolVersion="Jmol 16.3.31  2025-07-21 14:08">
</jvxlSurfaceInfo>


chemcompute.org
{'UTCtimestamp': '2026-04-30T07:55:09.902491', 'cluster': 'jetstream2', 'clusterJobNumber': '1118334', 'status': 'COMPLETE', 'nodeList': 'chemcompute-node-0'}
1118334
