----- GAMESS execution script 'rungms' -----
This job is running on host chemcompute-node-0.novalocal
under operating system Linux at Thu Apr 30 07:00:37 UTC 2026
SLURM has assigned the following compute nodes to this run:
Available scratch disk space (Kbyte units) at beginning of the job is
Filesystem     1K-blocks     Used Available Use% Mounted on
/dev/sda4       61775852 12544520  49231332  21% /
GAMESS temporary binary files will be written to /scratch/1118332
GAMESS supplementary output files will be written to /data/slurm/159/1594894
Copying input file 1594894.inp to your run's scratch directory...
The generated host list is
chemcompute-node-0.novalocal

 Distributed Data Interface kickoff program.
 Initiating 1 compute processes on 1 nodes to run the following command:
 /data/gamess-2019R1-avx2-ddi/gamess.00.x 1594894 

          ******************************************************
          *         GAMESS VERSION = 30 JUN 2019 (R1)          *
          *             FROM IOWA STATE UNIVERSITY             *
          * M.W.SCHMIDT, K.K.BALDRIDGE, J.A.BOATZ, S.T.ELBERT, *
          *   M.S.GORDON, J.H.JENSEN, S.KOSEKI, N.MATSUNAGA,   *
          *          K.A.NGUYEN, S.J.SU, T.L.WINDUS,           *
          *       TOGETHER WITH M.DUPUIS, J.A.MONTGOMERY       *
          *         J.COMPUT.CHEM.  14, 1347-1363(1993)        *
          **************** 64 BIT INTEL VERSION ****************

  SINCE 1993, STUDENTS AND POSTDOCS WORKING AT IOWA STATE UNIVERSITY
  AND ALSO IN THEIR VARIOUS JOBS AFTER LEAVING ISU HAVE MADE IMPORTANT
  CONTRIBUTIONS TO THE CODE:
     IVANA ADAMOVIC, CHRISTINE AIKENS, YURI ALEXEEV, POOJA ARORA,
     ANDREY ASADCHEV, ROB BELL, PRADIPTA BANDYOPADHYAY, JONATHAN BENTZ,
     COLLEEN BERTONI, BRETT BODE, KURT BRORSEN, CALEB CARLIN, GALINA CHABAN,
     WEI CHEN, CHEOL HO CHOI, PAUL DAY, ALBERT DEFUSCO, NUWAN DESILVA,
     TIM DUDLEY, DMITRI FEDOROV, ALEX FINDLATER, GRAHAM FLETCHER, 
     MARK FREITAG, KURT GLAESEMANN, ANASTASIA GUNINA,
     DAN KEMP, GRANT MERRILL, NORIYUKI MINEZAWA, JONATHAN MULLIN,
     TAKESHI NAGATA, SEAN NEDD, HEATHER NETZLOFF, BOSILJKA NJEGIC, RYAN OLSON,
     MIKE PAK, BUU PHAM,
     SPENCER PRUITT, LUKE ROSKOP, JIM SHOEMAKER, LYUDMILA SLIPCHENKO,
     TONY SMITH, SAROM SOK LEANG, JIE SONG, TETSUYA TAKETSUGU, SIMON WEBB,
     PENG XU, SOOHAENG YOO, FEDERICO ZAHARIEV

  ADDITIONAL CODE HAS BEEN PROVIDED BY COLLABORATORS IN OTHER GROUPS:
     IOWA STATE UNIVERSITY:
          JOE IVANIC, AARON WEST, LAIMUTIS BYTAUTAS, KLAUS RUEDENBERG
     UNIVERSITY OF TOKYO: KIMIHIKO HIRAO, TAKAHITO NAKAJIMA,
          TAKAO TSUNEDA, MUNEAKI KAMIYA, SUSUMU YANAGISAWA,
          KIYOSHI YAGI, MAHITO CHIBA, SEIKEN TOKURA, NAOAKI KAWAKAMI
     UNIVERSITY OF AARHUS: FRANK JENSEN
     UNIVERSITY OF IOWA: VISVALDAS KAIRYS, HUI LI
     NATIONAL INST. OF STANDARDS AND TECHNOLOGY: WALT STEVENS, DAVID GARMER
     UNIVERSITY OF PISA: BENEDETTA MENNUCCI, JACOPO TOMASI
     UNIVERSITY OF MEMPHIS: HENRY KURTZ, PRAKASHAN KORAMBATH
     UNIVERSITY OF ALBERTA: TOBY ZENG, MARIUSZ KLOBUKOWSKI
     UNIVERSITY OF NEW ENGLAND: MARK SPACKMAN
     MIE UNIVERSITY: HIROAKI UMEDA
     NAT. INST. OF ADVANCED INDUSTRIAL SCIENCE AND TECHNOLOGY: KAZUO KITAURA
     MICHIGAN STATE UNIVERSITY:
          KAROL KOWALSKI, MARTA WLOCH, JEFFREY GOUR, JESSE LUTZ,
          WEI LI, JUN SHEN, J. EMILIANO DEUSTUA, PIOTR PIECUCH
     UNIVERSITY OF MINNESOTA:
          YINAN SHU
     UNIVERSITY OF SILESIA: MONIKA MUSIAL, STANISLAW KUCHARSKI
     FACULTES UNIVERSITAIRES NOTRE-DAME DE LA PAIX:
          OLIVIER QUINET, BENOIT CHAMPAGNE
     UNIVERSITY OF CALIFORNIA - SANTA BARBARA: BERNARD KIRTMAN
     INSTITUTE FOR MOLECULAR SCIENCE:
          KAZUYA ISHIMURA, MICHIO KATOUDA, AND SHIGERU NAGASE
     UNIVERSITY OF NOTRE DAME: ANNA POMOGAEVA, DAN CHIPMAN
     KYUSHU UNIVERSITY:
          HARUYUKI NAKANO,
          FENG LONG GU, JACEK KORCHOWIEC, MARCIN MAKOWSKI, AND YURIKO AOKI,
          HIROTOSHI MORI AND EISAKU MIYOSHI
     PENNSYLVANIA STATE UNIVERSITY:
          TZVETELIN IORDANOV, CHET SWALINA, JONATHAN SKONE,
          SHARON HAMMES-SCHIFFER
     WASEDA UNIVERSITY:
          MASATO KOBAYASHI, TOMOKO AKAMA, TSUGUKI TOUMA,
          TAKESHI YOSHIKAWA, YASUHIRO IKABATA, JUNJI SEINO,
          YUYA NAKAJIMA, HIROMI NAKAI
     NANJING UNIVERSITY: SHUHUA LI
     UNIVERSITY OF NEBRASKA:
          PEIFENG SU, DEJUN SI, NANDUN THELLAMUREGE, YALI WANG, HUI LI
     UNIVERSITY OF ZURICH: ROBERTO PEVERATI, KIM BALDRIDGE
     N. COPERNICUS UNIVERSITY AND JACKSON STATE UNIVERSITY:
          MARIA BARYSZ
     UNIVERSITY OF COPENHAGEN: Jimmy Kromann, CASPER STEINMANN
     TOKYO INSTITUTE OF TECHNOLOGY: HIROYA NAKATA
     NAGOYA UNIVERSITY: YOSHIO NISHIMOTO, STEPHAN IRLE
     MOSCOW STATE UNIVERSITY: VLADIMIR MIRONOV
     A.N.NESMEYANOV INSTITUTE OF ORGANOELEMENT COMPOUNDS OF RUSSIAN ACADEMY OF SCIENCES:
          IGOR S. GERASIMOV

 EXECUTION OF GAMESS BEGUN Thu Apr 30 07:00:38 2026

            ECHO OF THE FIRST FEW INPUT CARDS -
 INPUT CARD>!                                                                               
 INPUT CARD>!   GAMESS Calculation input file                                               
 INPUT CARD>!                                                                               
 INPUT CARD>!                                                                               
 INPUT CARD> $CONTRL SCFTYP=RHF MAXIT=200 RUNTYP=OPTIMIZE                                   
 INPUT CARD>         COORD=UNIQUE MULT=1                                                    
 INPUT CARD>         ICHARG=0                                                               
 INPUT CARD>         MOLPLT=.FALSE. PLTORB=.FALSE.  $END                                    
 INPUT CARD> $SYSTEM TIMLIM=2879 MWORDS=250  $END                                           
 INPUT CARD>                                                                                
 INPUT CARD> $STATPT OPTTOL=0.0005 NSTEP=999 $END                                           
 INPUT CARD> $STATPT IHREP=0  $END                                                          
 INPUT CARD>                                                                                
 INPUT CARD> $BASIS  GBASIS=N31 NGAUSS=6                                                    
 INPUT CARD>         NDFUNC=1   NPFUNC=0  $END                                              
 INPUT CARD>                                                                                
 INPUT CARD> $SCF    DIRSCF=.T. $END                                                        
 INPUT CARD> $GUESS  GUESS=HUCKEL  $END                                                     
 INPUT CARD>                                                                                
 INPUT CARD> $DATA                                                                          
 INPUT CARD>                                                                                
 INPUT CARD>  C1                                                                            
 INPUT CARD>O     8.0    -1.35300    -1.22200     0.00000                                   
 INPUT CARD>O     8.0     1.37000    -1.22300     0.00000                                   
 INPUT CARD>C     6.0     0.00900     0.78500     0.00000                                   
 INPUT CARD>C     6.0    -1.35600     0.11800     0.00000                                   
 INPUT CARD>C     6.0     1.30300     0.00000     0.00000                                   
 INPUT CARD>C     6.0    -2.55300     0.80700    -0.02200                                   
 INPUT CARD>C     6.0     2.57000     0.80700     0.00400                                   
 INPUT CARD>H     1.0     0.01000     1.40600     0.91900                                   
 INPUT CARD>H     1.0     0.00700     1.43800    -0.86700                                   
 INPUT CARD>H     1.0    -2.62700     1.40900     0.88600                                   
 INPUT CARD>H     1.0    -2.55600     1.45600    -0.90600                                   
 INPUT CARD>H     1.0    -3.41700     0.14100    -0.07800                                   
 INPUT CARD>H     1.0     3.43500     0.14100     0.04700                                   
 INPUT CARD>H     1.0     2.62900     1.40800    -0.90500                                   
 INPUT CARD>H     1.0     2.58700     1.45600     0.88700                                   
 INPUT CARD> $END                                                                           
 INPUT CARD>                                                                                
 INPUT CARD>                                                                                
 INPUT CARD>! Customizations after this line are persisted when using Do More Calculations  
  250000000 WORDS OF MEMORY AVAILABLE

     BASIS OPTIONS
     -------------
     GBASIS=N31          IGAUSS=       6      POLAR=POPN31  
     NDFUNC=       1     NFFUNC=       0     DIFFSP=       F
     NPFUNC=       0      DIFFS=       F     BASNAM=        


     RUN TITLE
     ---------
                                                                                 

 THE POINT GROUP OF THE MOLECULE IS C1      
 THE ORDER OF THE PRINCIPAL AXIS IS     0

 ATOM      ATOMIC                      COORDINATES (BOHR)
           CHARGE         X                   Y                   Z
 O           8.0    -2.5567992614       -2.3092451570        0.0000000000
 O           8.0     2.5889246032       -2.3111348830        0.0000000000
 C           6.0     0.0170075339        1.4834349004        0.0000000000
 C           6.0    -2.5624684394        0.2229876666        0.0000000000
 C           6.0     2.4623129620        0.0000000000        0.0000000000
 C           6.0    -4.8244704467        1.5250088721       -0.0415739717
 C           6.0     4.8565957884        1.5250088721        0.0075589040
 H           1.0     0.0188972599        2.6569547387        1.7366581827
 H           1.0     0.0132280819        2.7174259703       -1.6383924314
 H           1.0    -4.9643101697        2.6626239167        1.6742972251
 H           1.0    -4.8301396246        2.7514410381       -1.7120917449
 H           1.0    -6.4571937000        0.2664513643       -0.1473986270
 H           1.0     6.4912087678        0.2664513643        0.0888171214
 H           1.0     4.9680896217        2.6607341907       -1.7102020189
 H           1.0     4.8887211302        2.7514410381        1.6761869511

          INTERNUCLEAR DISTANCES (ANGS.)
          ------------------------------

                1 O          2 O          3 C          4 C          5 C     

   1 O       0.0000000    2.7230002 *  2.4255088 *  1.3400034 *  2.9236313 *
   2 O       2.7230002 *  0.0000000    2.4257751 *  3.0379857    1.2248339 *
   3 C       2.4255088 *  2.4257751 *  0.0000000    1.5192478 *  1.5134930 *
   4 C       1.3400034 *  3.0379857    1.5192478 *  0.0000000    2.6616170 *
   5 C       2.9236313 *  1.2248339 *  1.5134930 *  2.6616170 *  0.0000000  
   6 C       2.3573979 *  4.4171612    2.5621889 *  1.3813088 *  3.9396026  
   7 C       4.4166487    2.3581595 *  2.5610976 *  3.9860021    1.5021831 *
   8 H       3.0997926    3.0993228    1.1091452 *  2.0903256 *  2.1197278 *
   9 H       3.1107698    3.1129374    1.0854041 *  2.0861107 *  2.1211198 *
  10 H       3.0545430    4.8670760    2.8500646 *  2.0167097 *  4.2679242  
  11 H       3.0724142    4.8385280    2.8018390 *  2.0127295 *  4.2228726  
  12 H       2.4746614 *  4.9781471    3.4868748    2.0626037 *  4.7227497  
  13 H       4.9784457    2.4752636 *  3.4863191    4.7912857    2.1371743 *
  14 H       4.8571853    3.0538937    2.8410480 *  4.2852480    2.1353606 *
  15 H       4.8458284    3.0732554    2.8076848 *  4.2572599    2.1343292 *

                6 C          7 C          8 H          9 H         10 H     

   1 O       2.3573979 *  4.4166487    3.0997926    3.1107698    3.0545430  
   2 O       4.4171612    2.3581595 *  3.0993228    3.1129374    4.8670760  
   3 C       2.5621889 *  2.5610976 *  1.1091452 *  1.0854041 *  2.8500646 *
   4 C       1.3813088 *  3.9860021    2.0903256 *  2.0861107 *  2.0167097 *
   5 C       3.9396026    1.5021831 *  2.1197278 *  2.1211198 *  4.2679242  
   6 C       0.0000000    5.1230660    2.7952193 *  2.7687156 *  1.0919451 *
   7 C       5.1230660    0.0000000    2.7838150 *  2.7795271 *  5.3055760  
   8 H       2.7952193 *  2.7838150 *  0.0000000    1.7862892 *  2.6372082 *
   9 H       2.7687156 *  2.7795271 *  1.7862892 *  0.0000000    3.1641438  
  10 H       1.0919451 *  5.3055760    2.6372082 *  3.1641438    0.0000000  
  11 H       1.0966613 *  5.2464442    3.1492032    2.5633599 *  1.7940217 *
  12 H       1.0923315 *  6.0244874    3.7866295    3.7454647    1.7779820 *
  13 H       6.0253183    1.0925338 *  3.7538292    3.7774051    6.2497671  
  14 H       5.2909370    1.0913125 *  3.1915734    2.6224469 *  5.5527667  
  15 H       5.2599508    1.0959831 *  2.5776837 *  3.1198141    5.2142119  

               11 H         12 H         13 H         14 H         15 H     

   1 O       3.0724142    2.4746614 *  4.9784457    4.8571853    4.8458284  
   2 O       4.8385280    4.9781471    2.4752636 *  3.0538937    3.0732554  
   3 C       2.8018390 *  3.4868748    3.4863191    2.8410480 *  2.8076848 *
   4 C       2.0127295 *  2.0626037 *  4.7912857    4.2852480    4.2572599  
   5 C       4.2228726    4.7227497    2.1371743 *  2.1353606 *  2.1343292 *
   6 C       1.0966613 *  1.0923315 *  6.0253183    5.2909370    5.2599508  
   7 C       5.2464442    6.0244874    1.0925338 *  1.0913125 *  1.0959831 *
   8 H       3.1492032    3.7866295    3.7538292    3.1915734    2.5776837 *
   9 H       2.5633599 *  3.7454647    3.7774051    2.6224469 *  3.1198141  
  10 H       1.7940217 *  1.7779820 *  6.2497671    5.5527667    5.2142119  
  11 H       0.0000000    1.7765500 *  6.2072148    5.1852223    5.4465859  
  12 H       1.7765500 *  0.0000000    6.8531401    6.2324421    6.2216128  
  13 H       6.2072148    6.8531401    0.0000000    1.7779845 *  1.7759305 *
  14 H       5.1852223    6.2324421    1.7779845 *  0.0000000    1.7931347 *
  15 H       5.4465859    6.2216128    1.7759305 *  1.7931347 *  0.0000000  

  * ... LESS THAN  3.000


     ATOMIC BASIS SET
     ----------------
 THE CONTRACTED PRIMITIVE FUNCTIONS HAVE BEEN UNNORMALIZED
 THE CONTRACTED BASIS FUNCTIONS ARE NOW NORMALIZED TO UNITY

  SHELL TYPE  PRIMITIVE        EXPONENT          CONTRACTION COEFFICIENT(S)

 O         

      1   S       1          5484.6716600    0.001831074430
      1   S       2           825.2349460    0.013950172200
      1   S       3           188.0469580    0.068445078098
      1   S       4            52.9645000    0.232714335992
      1   S       5            16.8975704    0.470192897984
      1   S       6             5.7996353    0.358520852987

      2   L       7            15.5396162   -0.110777549525    0.070874268231
      2   L       8             3.5999336   -0.148026262701    0.339752839147
      2   L       9             1.0137618    1.130767015354    0.727158577316

      3   L      10             0.2700058    1.000000000000    1.000000000000

      4   D      11             0.8000000    1.000000000000

 O         

      5   S      12          5484.6716600    0.001831074430
      5   S      13           825.2349460    0.013950172200
      5   S      14           188.0469580    0.068445078098
      5   S      15            52.9645000    0.232714335992
      5   S      16            16.8975704    0.470192897984
      5   S      17             5.7996353    0.358520852987

      6   L      18            15.5396162   -0.110777549525    0.070874268231
      6   L      19             3.5999336   -0.148026262701    0.339752839147
      6   L      20             1.0137618    1.130767015354    0.727158577316

      7   L      21             0.2700058    1.000000000000    1.000000000000

      8   D      22             0.8000000    1.000000000000

 C         

      9   S      23          3047.5248800    0.001834737132
      9   S      24           457.3695180    0.014037322813
      9   S      25           103.9486850    0.068842622264
      9   S      26            29.2101553    0.232184443216
      9   S      27             9.2866630    0.467941348435
      9   S      28             3.1639270    0.362311985337

     10   L      29             7.8682723   -0.119332419775    0.068999066591
     10   L      30             1.8812885   -0.160854151696    0.316423960957
     10   L      31             0.5442493    1.143456437840    0.744308290898

     11   L      32             0.1687145    1.000000000000    1.000000000000

     12   D      33             0.8000000    1.000000000000

 C         

     13   S      34          3047.5248800    0.001834737132
     13   S      35           457.3695180    0.014037322813
     13   S      36           103.9486850    0.068842622264
     13   S      37            29.2101553    0.232184443216
     13   S      38             9.2866630    0.467941348435
     13   S      39             3.1639270    0.362311985337

     14   L      40             7.8682723   -0.119332419775    0.068999066591
     14   L      41             1.8812885   -0.160854151696    0.316423960957
     14   L      42             0.5442493    1.143456437840    0.744308290898

     15   L      43             0.1687145    1.000000000000    1.000000000000

     16   D      44             0.8000000    1.000000000000

 C         

     17   S      45          3047.5248800    0.001834737132
     17   S      46           457.3695180    0.014037322813
     17   S      47           103.9486850    0.068842622264
     17   S      48            29.2101553    0.232184443216
     17   S      49             9.2866630    0.467941348435
     17   S      50             3.1639270    0.362311985337

     18   L      51             7.8682723   -0.119332419775    0.068999066591
     18   L      52             1.8812885   -0.160854151696    0.316423960957
     18   L      53             0.5442493    1.143456437840    0.744308290898

     19   L      54             0.1687145    1.000000000000    1.000000000000

     20   D      55             0.8000000    1.000000000000

 C         

     21   S      56          3047.5248800    0.001834737132
     21   S      57           457.3695180    0.014037322813
     21   S      58           103.9486850    0.068842622264
     21   S      59            29.2101553    0.232184443216
     21   S      60             9.2866630    0.467941348435
     21   S      61             3.1639270    0.362311985337

     22   L      62             7.8682723   -0.119332419775    0.068999066591
     22   L      63             1.8812885   -0.160854151696    0.316423960957
     22   L      64             0.5442493    1.143456437840    0.744308290898

     23   L      65             0.1687145    1.000000000000    1.000000000000

     24   D      66             0.8000000    1.000000000000

 C         

     25   S      67          3047.5248800    0.001834737132
     25   S      68           457.3695180    0.014037322813
     25   S      69           103.9486850    0.068842622264
     25   S      70            29.2101553    0.232184443216
     25   S      71             9.2866630    0.467941348435
     25   S      72             3.1639270    0.362311985337

     26   L      73             7.8682723   -0.119332419775    0.068999066591
     26   L      74             1.8812885   -0.160854151696    0.316423960957
     26   L      75             0.5442493    1.143456437840    0.744308290898

     27   L      76             0.1687145    1.000000000000    1.000000000000

     28   D      77             0.8000000    1.000000000000

 H         

     29   S      78            18.7311370    0.033494604338
     29   S      79             2.8253944    0.234726953484
     29   S      80             0.6401217    0.813757326146

     30   S      81             0.1612778    1.000000000000

 H         

     31   S      82            18.7311370    0.033494604338
     31   S      83             2.8253944    0.234726953484
     31   S      84             0.6401217    0.813757326146

     32   S      85             0.1612778    1.000000000000

 H         

     33   S      86            18.7311370    0.033494604338
     33   S      87             2.8253944    0.234726953484
     33   S      88             0.6401217    0.813757326146

     34   S      89             0.1612778    1.000000000000

 H         

     35   S      90            18.7311370    0.033494604338
     35   S      91             2.8253944    0.234726953484
     35   S      92             0.6401217    0.813757326146

     36   S      93             0.1612778    1.000000000000

 H         

     37   S      94            18.7311370    0.033494604338
     37   S      95             2.8253944    0.234726953484
     37   S      96             0.6401217    0.813757326146

     38   S      97             0.1612778    1.000000000000

 H         

     39   S      98            18.7311370    0.033494604338
     39   S      99             2.8253944    0.234726953484
     39   S     100             0.6401217    0.813757326146

     40   S     101             0.1612778    1.000000000000

 H         

     41   S     102            18.7311370    0.033494604338
     41   S     103             2.8253944    0.234726953484
     41   S     104             0.6401217    0.813757326146

     42   S     105             0.1612778    1.000000000000

 H         

     43   S     106            18.7311370    0.033494604338
     43   S     107             2.8253944    0.234726953484
     43   S     108             0.6401217    0.813757326146

     44   S     109             0.1612778    1.000000000000

 TOTAL NUMBER OF BASIS SET SHELLS             =   44
 NUMBER OF CARTESIAN GAUSSIAN BASIS FUNCTIONS =  121
 NUMBER OF ELECTRONS                          =   54
 CHARGE OF MOLECULE                           =    0
 SPIN MULTIPLICITY                            =    1
 NUMBER OF OCCUPIED ORBITALS (ALPHA)          =   27
 NUMBER OF OCCUPIED ORBITALS (BETA )          =   27
 TOTAL NUMBER OF ATOMS                        =   15
 THE NUCLEAR REPULSION ENERGY IS      291.7226744714

     $CONTRL OPTIONS
     ---------------
 SCFTYP=RHF          RUNTYP=OPTIMIZE     EXETYP=RUN     
 MPLEVL=       0     CITYP =NONE         CCTYP =NONE         VBTYP =NONE    
 DFTTYP=NONE         TDDFT =NONE    
 MULT  =       1     ICHARG=       0     NZVAR =       0     COORD =UNIQUE  
 PP    =NONE         RELWFN=NONE         LOCAL =NONE         NUMGRD=       F
 ISPHER=      -1     NOSYM =       0     MAXIT =     200     UNITS =ANGS    
 PLTORB=       F     MOLPLT=       F     AIMPAC=       F     FRIEND=        
 NPRINT=       7     IREST =       0     GEOM  =INPUT   
 NORMF =       0     NORMP =       0     ITOL  =      20     ICUT  =       9
 INTTYP=BEST         GRDTYP=BEST         QMTTOL= 1.0E-06

     $SYSTEM OPTIONS
     ---------------
  REPLICATED MEMORY=   250000000 WORDS (ON EVERY NODE).
 DISTRIBUTED MEMDDI=           0 MILLION WORDS IN AGGREGATE,
 MEMDDI DISTRIBUTED OVER   1 PROCESSORS IS           0 WORDS/PROCESSOR.
 TOTAL MEMORY REQUESTED ON EACH PROCESSOR=   250000000 WORDS.
 TIMLIM=        2879.00 MINUTES, OR       2.0 DAYS.
 PARALL= F  BALTYP=  DLB     KDIAG=    0  COREFL= F
 MXSEQ2=     300 MXSEQ3=     150  mem10=         0

          ----------------
          PROPERTIES INPUT
          ----------------

     MOMENTS            FIELD           POTENTIAL          DENSITY
 IEMOM =       1   IEFLD =       0   IEPOT =       0   IEDEN =       0
 WHERE =COMASS     WHERE =NUCLEI     WHERE =NUCLEI     WHERE =NUCLEI  
 OUTPUT=BOTH       OUTPUT=BOTH       OUTPUT=BOTH       OUTPUT=BOTH    
 IEMINT=       0   IEFINT=       0                     IEDINT=       0
                                                       MORB  =       0
          EXTRAPOLATION IN EFFECT
          SOSCF IN EFFECT
 ORBITAL PRINTING OPTION: NPREO=     1   121     2     1

     -------------------------------
     INTEGRAL TRANSFORMATION OPTIONS
     -------------------------------
     NWORD  =            0
     CUTOFF = 1.0E-09     MPTRAN =       0
     DIRTRF =       T     AOINTS =DUP     

          ----------------------
          INTEGRAL INPUT OPTIONS
          ----------------------
 NOPK  =       1 NORDER=       0 SCHWRZ=       T

     ------------------------------------------
     THE POINT GROUP IS C1 , NAXIS= 0, ORDER= 1
     ------------------------------------------

     DIMENSIONS OF THE SYMMETRY SUBSPACES ARE
 A   =  121

 ..... DONE SETTING UP THE RUN .....
 STEP CPU TIME =     0.02 TOTAL CPU TIME =          0.0 (      0.0 MIN)
 TOTAL WALL CLOCK TIME=          0.0 SECONDS, CPU UTILIZATION IS    66.67%


          -----------------------------
          STATIONARY POINT LOCATION RUN
          -----------------------------

 OBTAINING INITIAL HESSIAN, HESS=GUESS   
 CARTESIAN COORDINATE OPTIMIZATION USING BADGER'S RULE FORCE CONSTANT GUESS

          PARAMETERS CONTROLLING GEOMETRY SEARCH ARE
          METHOD =QA                  UPHESS =BFGS    
          NNEG   =         0          NFRZ   =         0
          NSTEP  =       999          IFOLOW =         1
          HESS   =GUESS               RESTAR =         F
          IHREP  =         0          HSSEND =         F
          NPRT   =         0          NPUN   =         0
          OPTTOL = 5.000E-04          RMIN   = 1.500E-03
          RMAX   = 1.000E-01          RLIM   = 7.000E-02
          DXMAX  = 3.000E-01          PURIFY =         F
          MOVIE  =         F          TRUPD  =         T
          TRMAX  = 5.000E-01          TRMIN  = 5.000E-02
          ITBMAT =         5          STPT   =         F
          STSTEP = 1.000E-02          PROJCT=          T

 BEGINNING GEOMETRY SEARCH POINT NSERCH=   0 ...

 COORDINATES OF ALL ATOMS ARE (ANGS)
   ATOM   CHARGE       X              Y              Z
 ------------------------------------------------------------
 O           8.0  -1.3530000000  -1.2220000000   0.0000000000
 O           8.0   1.3700000000  -1.2230000000   0.0000000000
 C           6.0   0.0090000000   0.7850000000   0.0000000000
 C           6.0  -1.3560000000   0.1180000000   0.0000000000
 C           6.0   1.3030000000   0.0000000000   0.0000000000
 C           6.0  -2.5530000000   0.8070000000  -0.0220000000
 C           6.0   2.5700000000   0.8070000000   0.0040000000
 H           1.0   0.0100000000   1.4060000000   0.9190000000
 H           1.0   0.0070000000   1.4380000000  -0.8670000000
 H           1.0  -2.6270000000   1.4090000000   0.8860000000
 H           1.0  -2.5560000000   1.4560000000  -0.9060000000
 H           1.0  -3.4170000000   0.1410000000  -0.0780000000
 H           1.0   3.4350000000   0.1410000000   0.0470000000
 H           1.0   2.6290000000   1.4080000000  -0.9050000000
 H           1.0   2.5870000000   1.4560000000   0.8870000000

          ********************
          1 ELECTRON INTEGRALS
          ********************
 ...... END OF ONE-ELECTRON INTEGRALS ......
 STEP CPU TIME =     0.00 TOTAL CPU TIME =          0.0 (      0.0 MIN)
 TOTAL WALL CLOCK TIME=          0.1 SECONDS, CPU UTILIZATION IS    33.33%

          -------------
          GUESS OPTIONS
          -------------
          GUESS =HUCKEL            NORB  =       0          NORDER=       0
          MIX   =       F          PRTMO =       F          PUNMO =       F
          TOLZ  = 1.0E-08          TOLE  = 1.0E-05
          SYMDEN=       F          PURIFY=       F

 INITIAL GUESS ORBITALS GENERATED BY HUCKEL   ROUTINE.
 HUCKEL GUESS REQUIRES    124942 WORDS.
chemcompute.org
{'UTCtimestamp': '2026-04-30T07:00:38.164067', 'cluster': 'jetstream2', 'clusterJobNumber': '1118332', 'status': 'RUNNING', 'nodeList': 'chemcompute-node-0'}

 SYMMETRIES FOR INITIAL GUESS ORBITALS FOLLOW.   BOTH SET(S).
    27 ORBITALS ARE OCCUPIED (    7 CORE ORBITALS).
     8=A        9=A       10=A       11=A       12=A       13=A       14=A   
    15=A       16=A       17=A       18=A       19=A       20=A       21=A   
    22=A       23=A       24=A       25=A       26=A       27=A       28=A   
    29=A       30=A       31=A       32=A       33=A       34=A       35=A   
    36=A       37=A   
 ...... END OF INITIAL ORBITAL SELECTION ......
 STEP CPU TIME =     0.03 TOTAL CPU TIME =          0.0 (      0.0 MIN)
 TOTAL WALL CLOCK TIME=          0.1 SECONDS, CPU UTILIZATION IS    45.45%

                    ----------------------
                    AO INTEGRAL TECHNOLOGY
                    ----------------------
     S,P,L SHELL ROTATED AXIS INTEGRALS, REPROGRAMMED BY
        KAZUYA ISHIMURA (IMS) AND JOSE SIERRA (SYNSTAR).
     S,P,D,L SHELL ROTATED AXIS INTEGRALS PROGRAMMED BY
        KAZUYA ISHIMURA (INSTITUTE FOR MOLECULAR SCIENCE).
     S,P,D,F,G SHELL TO TOTAL QUARTET ANGULAR MOMENTUM SUM 5,
        ERIC PROGRAM BY GRAHAM FLETCHER (ELORET AND NASA ADVANCED
        SUPERCOMPUTING DIVISION, AMES RESEARCH CENTER).
     S,P,D,F,G,L SHELL GENERAL RYS QUADRATURE PROGRAMMED BY
        MICHEL DUPUIS (PACIFIC NORTHWEST NATIONAL LABORATORY).

          --------------------
          2 ELECTRON INTEGRALS
          --------------------

 DIRECT SCF METHOD SKIPS INTEGRAL STORAGE ON DISK.
 DIRECT TRANSFORMATION SKIPS AO INTEGRAL STORAGE ON DISK.
  ...... END OF TWO-ELECTRON INTEGRALS .....
 STEP CPU TIME =     0.01 TOTAL CPU TIME =          0.1 (      0.0 MIN)
 TOTAL WALL CLOCK TIME=          0.1 SECONDS, CPU UTILIZATION IS    50.00%

          --------------------------
                 RHF SCF CALCULATION
          --------------------------

     NUCLEAR ENERGY =       291.7226744714
     MAXIT =  200     NPUNCH=    2
     EXTRAP=T  DAMP=F  SHIFT=F  RSTRCT=F  DIIS=F  DEM=F  SOSCF=T
     DENSITY MATRIX CONV=  2.00E-05
     SOSCF WILL OPTIMIZE    2538 ORBITAL ROTATIONS, SOGTOL=   0.250
     MEMORY REQUIRED FOR RHF ITERS=    161709 WORDS.

 DIRECT SCF CALCULATION, SCHWRZ=T   FDIFF=T,  DIRTHR=  0.00E+00 NITDIR=10
 SCHWARZ INEQUALITY OVERHEAD:      7275 INTEGRALS, T=        0.00

                                                                                   NONZERO     BLOCKS
 ITER EX DEM     TOTAL ENERGY        E CHANGE  DENSITY CHANGE     ORB. GRAD      INTEGRALS    SKIPPED
   1  0  0     -342.5442808751  -342.5442808751   0.429083535   0.000000000       18039788     144611
          ---------------START SECOND ORDER SCF---------------
   2  1  0     -343.3431226071    -0.7988417320   0.509428074   0.187178415       18040271     148204
   3  2  0     -343.3244218816     0.0187007255   0.241553733   0.151749948       18008180     153385
   4  3  0     -343.6562459443    -0.3318240627   0.136835370   0.026846538       17945986     160191
   5  4  0     -343.6648901852    -0.0086442410   0.023047411   0.010390474       17829234     169654
   6  5  0     -343.6660345131    -0.0011443278   0.005804562   0.002999644       17578829     185019
   7  6  0     -343.6661125856    -0.0000780725   0.002916549   0.001639100       17293445     197624
   8  7  0     -343.6661454951    -0.0000329095   0.000537652   0.000167315       17040509     208329
   9  8  0     -343.6661468106    -0.0000013155   0.000471087   0.000102257       16395271     227694
  10  9  0     -343.6661471422    -0.0000003316   0.000165671   0.000032413       16041640     237332
  11 10  0     -343.6661471808    -0.0000000386   0.000043841   0.000012571       15218956     255986
  12 11  0     -343.6661471867    -0.0000000059   0.000006176   0.000002626       14747870     265771
  13 12  0     -343.6661471874    -0.0000000007   0.000002346   0.000001053       13544616     289647

          -----------------
          DENSITY CONVERGED
          -----------------
     TIME TO FORM FOCK OPERATORS=       6.4 SECONDS (       0.5 SEC/ITER)
     FOCK TIME ON FIRST ITERATION=       0.6, LAST ITERATION=       0.4
     TIME TO SOLVE SCF EQUATIONS=       0.0 SECONDS (       0.0 SEC/ITER)

 FINAL RHF ENERGY IS     -343.6661471874 AFTER  13 ITERATIONS

          ------------
          EIGENVECTORS
          ------------

                      1          2          3          4          5
                  -20.5522   -20.5433   -11.3444   -11.3400   -11.2697
                     A          A          A          A          A   
    1  O  1  S   -0.000192   0.994793  -0.000119  -0.000043   0.000003
    2  O  1  S    0.000053   0.020752   0.000523  -0.000178  -0.000043
    3  O  1  X    0.000023  -0.000054  -0.000010  -0.000023  -0.000008
    4  O  1  Y    0.000000   0.001251   0.000216  -0.000034  -0.000050
    5  O  1  Z    0.000000   0.000002   0.000001  -0.000000  -0.000000
    6  O  1  S   -0.000281   0.003612  -0.001715   0.001005  -0.000470
    7  O  1  X   -0.000103   0.000039  -0.000011   0.000003  -0.000400
    8  O  1  Y   -0.000032  -0.000427  -0.001209   0.000308  -0.000085
    9  O  1  Z   -0.000000  -0.000001  -0.000016   0.000001  -0.000001
   10  O  1 XX    0.000032  -0.003652   0.000173  -0.000146   0.000047
   11  O  1 YY    0.000058  -0.003826  -0.000349  -0.000100   0.000040
   12  O  1 ZZ    0.000060  -0.003986   0.000444  -0.000150  -0.000104
   13  O  1 XY   -0.000010  -0.000001  -0.000034   0.000006  -0.000056
   14  O  1 XZ   -0.000000   0.000003  -0.000003   0.000000   0.000000
   15  O  1 YZ   -0.000000  -0.000002  -0.000005   0.000000   0.000000
   16  O  2  S    0.994700   0.000222  -0.000033  -0.000248   0.000012
   17  O  2  S    0.020912   0.000053  -0.000137   0.000730  -0.000001
   18  O  2  X   -0.000046  -0.000027   0.000007   0.000002   0.000010
   19  O  2  Y    0.001534   0.000002  -0.000027   0.000298  -0.000014
   20  O  2  Z    0.000000  -0.000000   0.000001  -0.000001   0.000000
   21  O  2  S    0.004591  -0.000191   0.000805  -0.003644  -0.000578
   22  O  2  X   -0.000013   0.000113   0.000068  -0.000033   0.000567
   23  O  2  Y   -0.000021   0.000003   0.000224  -0.001802  -0.000067
   24  O  2  Z   -0.000000   0.000000  -0.000006   0.000002  -0.000001
   25  O  2 XX   -0.003872   0.000021  -0.000114   0.000235   0.000048
   26  O  2 YY   -0.003608   0.000059  -0.000076   0.000041   0.000105
   27  O  2 ZZ   -0.004206   0.000057  -0.000111   0.000515  -0.000087
   28  O  2 XY   -0.000004   0.000010   0.000008  -0.000011   0.000103
   29  O  2 XZ    0.000002   0.000000  -0.000000  -0.000002  -0.000001
   30  O  2 YZ   -0.000000   0.000000  -0.000001  -0.000000   0.000000
   31  C  3  S    0.000003  -0.000000   0.004077   0.004324   0.995834
   32  C  3  S    0.000022   0.000034   0.000372   0.000333   0.029202
   33  C  3  X    0.000005   0.000019   0.000138  -0.000139  -0.000064
   34  C  3  Y    0.000021   0.000028   0.000130   0.000120   0.000035
   35  C  3  Z    0.000000  -0.000000   0.000009   0.000003   0.000018
   36  C  3  S   -0.000356  -0.000152   0.002305   0.003307  -0.020056
   37  C  3  X   -0.000212   0.000047  -0.002610   0.002791   0.000285
   38  C  3  Y    0.000117   0.000088  -0.000392  -0.000840   0.001872
   39  C  3  Z    0.000000   0.000002  -0.000091  -0.000033  -0.000096
   40  C  3 XX    0.000043  -0.000010  -0.000424  -0.000442  -0.001570
   41  C  3 YY   -0.000049  -0.000051  -0.000303  -0.000312  -0.001807
   42  C  3 ZZ   -0.000012  -0.000017  -0.000042  -0.000046  -0.001580
   43  C  3 XY    0.000022  -0.000036  -0.000235   0.000238  -0.000033
   44  C  3 XZ    0.000000   0.000000   0.000003  -0.000000   0.000002
   45  C  3 YZ    0.000000   0.000000  -0.000003  -0.000005  -0.000034
   46  C  4  S   -0.000001  -0.000012   0.995848   0.000802  -0.004356
   47  C  4  S   -0.000003   0.000455   0.026348  -0.000051  -0.000003
   48  C  4  X   -0.000016  -0.000006  -0.000131  -0.000006   0.000003
   49  C  4  Y   -0.000005  -0.000267   0.000123   0.000036   0.000062
   50  C  4  Z   -0.000000   0.000000  -0.000003   0.000000   0.000003
   51  C  4  S    0.000012   0.000226  -0.011225   0.000279   0.004090
   52  C  4  X    0.000187   0.000001   0.000077   0.000146   0.003858
   53  C  4  Y   -0.000143   0.000173  -0.003816   0.000912   0.000143
   54  C  4  Z    0.000002  -0.000002   0.000077   0.000002   0.000018
   55  C  4 XX   -0.000000  -0.000047  -0.001247  -0.000008  -0.000411
   56  C  4 YY   -0.000012  -0.000317  -0.000932  -0.000013  -0.000232
   57  C  4 ZZ   -0.000003  -0.000061  -0.002176  -0.000041  -0.000141
   58  C  4 XY   -0.000021   0.000008  -0.000203   0.000046  -0.000171
   59  C  4 XZ   -0.000000   0.000000   0.000012   0.000001   0.000002
   60  C  4 YZ    0.000000  -0.000000  -0.000005  -0.000000   0.000002
   61  C  5  S   -0.000009  -0.000000  -0.000849   0.995838  -0.004610
   62  C  5  S    0.000441  -0.000004  -0.000122   0.026711  -0.000037
   63  C  5  X   -0.000003   0.000000   0.000029  -0.000072   0.000006
   64  C  5  Y    0.000045  -0.000003   0.000038  -0.000287   0.000061
   65  C  5  Z    0.000000  -0.000000   0.000000   0.000006   0.000002
   66  C  5  S    0.000026   0.000087   0.000368  -0.009859   0.004320
   67  C  5  X   -0.000083  -0.000095  -0.000505   0.000729  -0.003655
   68  C  5  Y    0.000742   0.000004   0.000727  -0.004897   0.000273
   69  C  5  Z    0.000000  -0.000000   0.000022  -0.000011   0.000011
   70  C  5 XX   -0.000054   0.000002  -0.000018  -0.001662  -0.000353
   71  C  5 YY   -0.000769  -0.000017   0.000008  -0.000709  -0.000289
   72  C  5 ZZ   -0.000046   0.000002  -0.000051  -0.002228  -0.000133
   73  C  5 XY    0.000052   0.000020  -0.000036  -0.000069   0.000216
   74  C  5 XZ   -0.000000   0.000000  -0.000003  -0.000001  -0.000000
   75  C  5 YZ   -0.000000  -0.000000   0.000001  -0.000000   0.000002
   76  C  6  S    0.000000  -0.000003   0.005681  -0.000013  -0.000603
   77  C  6  S   -0.000002   0.000014   0.000109  -0.000073  -0.000298
   78  C  6  X    0.000005  -0.000005  -0.000215  -0.000033  -0.000038
   79  C  6  Y   -0.000000   0.000036   0.000214  -0.000027  -0.000087
   80  C  6  Z    0.000000  -0.000000   0.000003  -0.000002  -0.000003
   81  C  6  S    0.000149  -0.000027   0.003629   0.000078   0.002239
   82  C  6  X    0.000037  -0.000092   0.002097   0.000055   0.000575
   83  C  6  Y   -0.000039   0.000042  -0.000577   0.000023  -0.000339
   84  C  6  Z    0.000001  -0.000002  -0.000023   0.000008   0.000041
   85  C  6 XX   -0.000002   0.000007  -0.000303  -0.000026  -0.000044
   86  C  6 YY    0.000002  -0.000065  -0.000325  -0.000009   0.000024
   87  C  6 ZZ    0.000002  -0.000027  -0.000046  -0.000033  -0.000107
   88  C  6 XY    0.000002   0.000039   0.000194  -0.000019  -0.000038
   89  C  6 XZ    0.000000   0.000001  -0.000010  -0.000001   0.000002
   90  C  6 YZ    0.000000   0.000000   0.000004  -0.000001  -0.000003
   91  C  7  S   -0.000002   0.000001  -0.000026   0.003214  -0.000485
   92  C  7  S    0.000014   0.000005  -0.000099   0.000232  -0.000319
   93  C  7  X    0.000016  -0.000000   0.000031   0.000020   0.000053
   94  C  7  Y    0.000031  -0.000000  -0.000026   0.000121  -0.000056
   95  C  7  Z    0.000000  -0.000000   0.000002  -0.000006   0.000003
   96  C  7  S   -0.000135   0.000009   0.000410   0.003115   0.001968
   97  C  7  X    0.000174   0.000012  -0.000182  -0.001758  -0.000537
   98  C  7  Y   -0.000005  -0.000020   0.000005  -0.000366  -0.000269
   99  C  7  Z    0.000002   0.000001  -0.000016   0.000027  -0.000024
  100  C  7 XX    0.000003  -0.000004  -0.000031  -0.000303  -0.000047
  101  C  7 YY   -0.000051   0.000004  -0.000015  -0.000370  -0.000007
  102  C  7 ZZ   -0.000027   0.000002  -0.000042  -0.000029  -0.000114
  103  C  7 XY   -0.000030  -0.000001   0.000015  -0.000245   0.000015
  104  C  7 XZ    0.000000   0.000000   0.000000  -0.000003  -0.000000
  105  C  7 YZ   -0.000000  -0.000000   0.000000   0.000002   0.000001
  106  H  8  S    0.000014   0.000008  -0.000096  -0.000120   0.000313
  107  H  8  S   -0.000035  -0.000034   0.000392   0.000336   0.002711
  108  H  9  S    0.000015   0.000009  -0.000106  -0.000123   0.000261
  109  H  9  S   -0.000035  -0.000032   0.000294   0.000286   0.002726
  110  H 10  S   -0.000001   0.000007  -0.000084  -0.000020  -0.000052
  111  H 10  S    0.000003  -0.000039   0.000369  -0.000065  -0.000295
  112  H 11  S   -0.000001   0.000006  -0.000081  -0.000022  -0.000054
  113  H 11  S    0.000003  -0.000038   0.000286  -0.000050  -0.000276
  114  H 12  S   -0.000003   0.000000  -0.000015  -0.000002  -0.000061
  115  H 12  S   -0.000015  -0.000063   0.000260   0.000072   0.000090
  116  H 13  S    0.000002   0.000000  -0.000010  -0.000047  -0.000065
  117  H 13  S   -0.000079  -0.000012   0.000082   0.000157   0.000100
  118  H 14  S    0.000013   0.000001  -0.000026  -0.000134  -0.000053
  119  H 14  S   -0.000026   0.000007  -0.000087   0.000207  -0.000303
  120  H 15  S    0.000012   0.000001  -0.000023  -0.000130  -0.000055
  121  H 15  S   -0.000024   0.000007  -0.000080   0.000142  -0.000282

                      6          7          8          9         10
                  -11.2455   -11.2406    -1.3750    -1.3063    -1.0906
                     A          A          A          A          A   
    1  O  1  S   -0.000008  -0.000020  -0.018807  -0.187603   0.080672
    2  O  1  S   -0.000120  -0.000082   0.042774   0.416696  -0.185617
    3  O  1  X    0.000018  -0.000004   0.003776  -0.002616  -0.001089
    4  O  1  Y   -0.000038  -0.000012   0.011130   0.103919   0.005341
    5  O  1  Z   -0.000001   0.000000  -0.000013  -0.000190  -0.000182
    6  O  1  S    0.000044   0.000362   0.036351   0.419496  -0.187282
    7  O  1  X    0.000237  -0.000062   0.002059  -0.003989  -0.000841
    8  O  1  Y    0.000119   0.000102   0.004655   0.062189   0.002593
    9  O  1  Z    0.000007  -0.000002   0.000003  -0.000074  -0.000045
   10  O  1 XX   -0.000011  -0.000046   0.000628  -0.003708  -0.001984
   11  O  1 YY    0.000069  -0.000042   0.002235   0.018349  -0.001099
   12  O  1 ZZ   -0.000124  -0.000079   0.000285  -0.003061  -0.000607
   13  O  1 XY   -0.000006  -0.000018   0.000236  -0.000345  -0.000545
   14  O  1 XZ    0.000002  -0.000000  -0.000001   0.000009  -0.000016
   15  O  1 YZ    0.000000  -0.000000   0.000001  -0.000018  -0.000026
   16  O  2  S   -0.000015  -0.000005  -0.191491   0.026344   0.036613
   17  O  2  S   -0.000062  -0.000100   0.422116  -0.057147  -0.084231
   18  O  2  X   -0.000001  -0.000018  -0.005391  -0.004628  -0.004482
   19  O  2  Y   -0.000004  -0.000032   0.132743  -0.017061   0.003040
   20  O  2  Z   -0.000000   0.000001   0.000006  -0.000002   0.000039
   21  O  2  S    0.000305  -0.000111   0.397938  -0.060901  -0.078699
   22  O  2  X    0.000084  -0.000342   0.000249  -0.003631  -0.002646
   23  O  2  Y    0.000083   0.000089   0.057196  -0.009401   0.003979
   24  O  2  Z    0.000001  -0.000007   0.000035   0.000010   0.000050
   25  O  2 XX   -0.000040   0.000017  -0.003797   0.001590  -0.001376
   26  O  2 YY   -0.000027   0.000068   0.018088  -0.002131  -0.001151
   27  O  2 ZZ   -0.000060  -0.000132  -0.002754   0.001035  -0.000158
   28  O  2 XY    0.000016  -0.000033  -0.001276  -0.000276  -0.000861
   29  O  2 XZ   -0.000000  -0.000000  -0.000002   0.000000  -0.000003
   30  O  2 YZ   -0.000000  -0.000001   0.000008   0.000001   0.000007
   31  C  3  S    0.000493   0.000371  -0.021248  -0.025229  -0.120157
   32  C  3  S   -0.000242  -0.000271   0.039456   0.046802   0.224729
   33  C  3  X    0.000102  -0.000124   0.017502  -0.029616  -0.016903
   34  C  3  Y   -0.000078  -0.000073  -0.019951  -0.016656   0.002390
   35  C  3  Z   -0.000003  -0.000004  -0.000083  -0.000149  -0.001559
   36  C  3  S    0.001017   0.001067   0.014299   0.027657   0.195932
   37  C  3  X   -0.001200   0.001374  -0.014702   0.016024  -0.002837
   38  C  3  Y    0.000274   0.000219  -0.007053  -0.008212   0.006076
   39  C  3  Z    0.000011   0.000013   0.000316   0.000190   0.000666
   40  C  3 XX   -0.000005  -0.000036   0.004432   0.004983   0.009517
   41  C  3 YY   -0.000049  -0.000041   0.003097   0.001669   0.000210
   42  C  3 ZZ   -0.000072  -0.000092  -0.000380  -0.000025   0.005920
   43  C  3 XY    0.000071  -0.000067  -0.004532   0.005168  -0.000288
   44  C  3 XZ   -0.000001  -0.000001   0.000000   0.000016   0.000064
   45  C  3 YZ   -0.000004  -0.000002  -0.000008  -0.000045  -0.000528
   46  C  4  S   -0.006143  -0.000026  -0.014003  -0.111242  -0.079253
   47  C  4  S   -0.000139  -0.000092   0.027507   0.213345   0.164234
   48  C  4  X    0.000179  -0.000032   0.006452  -0.010269  -0.016090
   49  C  4  Y    0.000013   0.000011  -0.009533  -0.116260   0.160711
   50  C  4  Z    0.000005  -0.000001  -0.000023  -0.000338  -0.001544
   51  C  4  S    0.004371   0.000486   0.002912   0.100674   0.097196
   52  C  4  X   -0.003051   0.000882  -0.003225   0.002771   0.002972
   53  C  4  Y    0.000724   0.000287  -0.003158   0.038523   0.043325
   54  C  4  Z   -0.000049   0.000005  -0.000077  -0.000066  -0.000370
   55  C  4 XX   -0.000390  -0.000005   0.000613  -0.007938   0.019146
   56  C  4 YY   -0.000288  -0.000044   0.002541   0.024060  -0.011019
   57  C  4 ZZ   -0.000106  -0.000053  -0.001546  -0.013236  -0.006852
   58  C  4 XY    0.000107   0.000026   0.000070  -0.000749  -0.001991
   59  C  4 XZ   -0.000006  -0.000001  -0.000007   0.000053   0.000216
   60  C  4 YZ    0.000004  -0.000000  -0.000009  -0.000072  -0.000219
   61  C  5  S   -0.000025  -0.003507  -0.115233   0.010170  -0.044363
   62  C  5  S   -0.000097   0.000062   0.218836  -0.018150   0.090897
   63  C  5  X    0.000023  -0.000046   0.009083  -0.013245  -0.034683
   64  C  5  Y    0.000009   0.000090  -0.163411   0.027269   0.094609
   65  C  5  Z   -0.000001  -0.000001   0.000084  -0.000023  -0.000003
   66  C  5  S    0.000523   0.003243   0.081941  -0.014437   0.058071
   67  C  5  X   -0.000731   0.002738  -0.001739   0.007320   0.002352
   68  C  5  Y    0.000281   0.000467   0.041590  -0.010583   0.029466
   69  C  5  Z   -0.000000   0.000012  -0.000057  -0.000055  -0.000147
   70  C  5 XX    0.000002  -0.000413  -0.014748   0.004179   0.011965
   71  C  5 YY   -0.000037  -0.000282   0.029377  -0.003891  -0.004125
   72  C  5 ZZ   -0.000049  -0.000116  -0.016388   0.001810  -0.003249
   73  C  5 XY   -0.000017  -0.000156  -0.002754   0.000025  -0.003255
   74  C  5 XZ    0.000001  -0.000001  -0.000002   0.000011   0.000065
   75  C  5 YZ   -0.000001  -0.000002  -0.000016  -0.000004  -0.000012
   76  C  6  S    0.995602   0.000111  -0.003223  -0.035523  -0.106733
   77  C  6  S    0.029521  -0.000051   0.006547   0.068183   0.198185
   78  C  6  X    0.000530  -0.000015   0.003791   0.033788   0.062836
   79  C  6  Y   -0.000016  -0.000019  -0.002402  -0.028328  -0.010038
   80  C  6  Z    0.000014  -0.000002   0.000059   0.000599   0.001013
   81  C  6  S   -0.017027   0.000445   0.003062   0.025460   0.166685
   82  C  6  X   -0.001497   0.000196  -0.000077  -0.008744   0.005106
   83  C  6  Y    0.000719  -0.000190   0.000184  -0.009301   0.000912
   84  C  6  Z   -0.000021   0.000014  -0.000024  -0.000310   0.000003
   85  C  6 XX   -0.001855  -0.000010   0.000538   0.004312   0.008167
   86  C  6 YY   -0.002062   0.000010   0.000068   0.003132   0.000674
   87  C  6 ZZ   -0.002097  -0.000020   0.000070  -0.000407   0.003821
   88  C  6 XY   -0.000115  -0.000020  -0.000396  -0.005245  -0.001590
   89  C  6 XZ    0.000004   0.000000   0.000010   0.000125   0.000016
   90  C  6 YZ    0.000008  -0.000000  -0.000004  -0.000055  -0.000041
   91  C  7  S   -0.000130   0.995711  -0.019792   0.002407  -0.041087
   92  C  7  S   -0.000052   0.028847   0.037980  -0.003700   0.077780
   93  C  7  X    0.000022  -0.000283  -0.020518   0.001606  -0.025407
   94  C  7  Y   -0.000013   0.000072  -0.020488   0.003119  -0.002468
   95  C  7  Z    0.000001  -0.000006  -0.000057   0.000001  -0.000097
   96  C  7  S    0.000294  -0.015898   0.005570  -0.003846   0.055166
   97  C  7  X   -0.000171   0.001079   0.007944   0.000084   0.000480
   98  C  7  Y   -0.000126   0.000575  -0.006398   0.002651   0.001619
   99  C  7  Z   -0.000007  -0.000004   0.000091   0.000058   0.000136
  100  C  7 XX   -0.000013  -0.001871   0.004119  -0.000328   0.003609
  101  C  7 YY    0.000007  -0.001910   0.003403  -0.000627   0.000771
  102  C  7 ZZ   -0.000019  -0.001862  -0.000416   0.000250   0.001701
  103  C  7 XY    0.000015  -0.000031   0.004777  -0.000723   0.001114
  104  C  7 XZ    0.000000   0.000000   0.000038  -0.000009  -0.000020
  105  C  7 YZ   -0.000000  -0.000008  -0.000025   0.000008   0.000015
  106  H  8  S   -0.000080  -0.000079   0.007328   0.010072   0.075211
  107  H  8  S   -0.000276  -0.000301   0.000057   0.000639   0.011741
  108  H  9  S   -0.000077  -0.000086   0.007493   0.010371   0.078403
  109  H  9  S   -0.000298  -0.000274   0.000332   0.000826   0.012531
  110  H 10  S    0.000188  -0.000027   0.001182   0.013247   0.063157
  111  H 10  S    0.002634   0.000035  -0.000028   0.001854   0.010181
  112  H 11  S    0.000201  -0.000027   0.001201   0.013183   0.063569
  113  H 11  S    0.002618   0.000049  -0.000094   0.001897   0.010721
  114  H 12  S    0.000230  -0.000013   0.001333   0.016055   0.048199
  115  H 12  S    0.002395   0.000036  -0.000368  -0.002471   0.002626
  116  H 13  S   -0.000008   0.000190   0.009478  -0.001304   0.018085
  117  H 13  S    0.000050   0.002409  -0.001183  -0.000175   0.000863
  118  H 14  S   -0.000025   0.000149   0.006694  -0.000554   0.025455
  119  H 14  S    0.000035   0.002626   0.001182  -0.000180   0.005267
  120  H 15  S   -0.000024   0.000161   0.006621  -0.000532   0.025628
  121  H 15  S    0.000042   0.002609   0.001229  -0.000251   0.005400

                     11         12         13         14         15
                   -1.0436    -0.9842    -0.7947    -0.7204    -0.6647
                     A          A          A          A          A   
    1  O  1  S    0.031838  -0.009336  -0.039164   0.051963   0.003369
    2  O  1  S   -0.074468   0.021576   0.093095  -0.120030  -0.007023
    3  O  1  X   -0.021467  -0.031875  -0.027954  -0.026954   0.032437
    4  O  1  Y    0.007067  -0.003681  -0.083529   0.163956   0.010029
    5  O  1  Z   -0.000307  -0.000253  -0.000097   0.000858   0.086202
    6  O  1  S   -0.074371   0.022078   0.114859  -0.175924  -0.013684
    7  O  1  X   -0.010017  -0.015785  -0.016450  -0.015231   0.019559
    8  O  1  Y    0.004649  -0.001742  -0.046288   0.094609   0.004887
    9  O  1  Z   -0.000233  -0.000191  -0.000112   0.000584   0.055875
   10  O  1 XX   -0.001011   0.000250   0.003572  -0.004235   0.000179
   11  O  1 YY    0.000169   0.000002  -0.006538   0.014093   0.000888
   12  O  1 ZZ   -0.000862  -0.000116   0.002010  -0.001936   0.000257
   13  O  1 XY   -0.002823  -0.003370  -0.002016  -0.002483   0.002035
   14  O  1 XZ   -0.000005   0.000005   0.000022  -0.000018   0.000002
   15  O  1 YZ   -0.000051  -0.000034  -0.000017   0.000134   0.009025
   16  O  2  S   -0.052302   0.012968   0.043954   0.062888   0.000223
   17  O  2  S    0.121141  -0.030852  -0.103535  -0.146810   0.000080
   18  O  2  X   -0.002467   0.046380  -0.047193   0.007752  -0.042937
   19  O  2  Y   -0.011306   0.008715   0.096892   0.225631  -0.003633
   20  O  2  Z   -0.000082   0.000093   0.000001   0.001603   0.094580
   21  O  2  S    0.117831  -0.030344  -0.131876  -0.214056  -0.001553
   22  O  2  X    0.000364   0.021474  -0.027076   0.002371  -0.025428
   23  O  2  Y   -0.008219   0.004773   0.051244   0.124653  -0.002178
   24  O  2  Z   -0.000116   0.000045  -0.000048   0.001048   0.061936
   25  O  2 XX    0.001755  -0.001031  -0.003379  -0.006265   0.000440
   26  O  2 YY    0.001106   0.000278   0.005608   0.015801  -0.000015
   27  O  2 ZZ    0.000607  -0.000678  -0.001901  -0.003555   0.000321
   28  O  2 XY   -0.000506   0.005432  -0.004075   0.000555  -0.002931
   29  O  2 XZ    0.000005   0.000001  -0.000011  -0.000022  -0.000504
   30  O  2 YZ   -0.000023   0.000014   0.000006   0.000202   0.010412
   31  C  3  S    0.073287   0.111318  -0.002382   0.045098   0.000366
   32  C  3  S   -0.136486  -0.205072   0.005943  -0.080201  -0.000443
   33  C  3  X   -0.067603   0.025647   0.249812   0.012261  -0.004315
   34  C  3  Y    0.004596   0.002273  -0.018477  -0.163331  -0.053904
   35  C  3  Z    0.000551   0.001474   0.000676   0.011441   0.307596
   36  C  3  S   -0.140062  -0.249141   0.003290  -0.137750   0.002863
   37  C  3  X   -0.003871   0.004583   0.080629   0.003314   0.000464
   38  C  3  Y    0.000578   0.003150  -0.007290  -0.085410  -0.028388
   39  C  3  Z   -0.000734  -0.000652   0.000150   0.005066   0.169297
   40  C  3 XX   -0.002628  -0.001934  -0.001893   0.014962   0.002461
   41  C  3 YY   -0.001416  -0.002889   0.001703  -0.003137  -0.000899
   42  C  3 ZZ   -0.003835  -0.006866  -0.000376  -0.015452  -0.001951
   43  C  3 XY    0.004306  -0.000596  -0.018085  -0.001620   0.000082
   44  C  3 XZ    0.000026  -0.000013  -0.000072  -0.000054  -0.000759
   45  C  3 YZ    0.000286   0.000543   0.000121   0.001560   0.022116
   46  C  4  S   -0.042721   0.010451   0.097133  -0.087468  -0.000345
   47  C  4  S    0.089732  -0.020124  -0.206180   0.195413   0.000455
   48  C  4  X   -0.128189  -0.142605  -0.083390  -0.079395   0.043366
   49  C  4  Y    0.075769  -0.015684  -0.083089  -0.015313  -0.009761
   50  C  4  Z   -0.001742  -0.000993   0.000108   0.001507   0.140918
   51  C  4  S    0.049130  -0.025922  -0.202776   0.175092   0.004546
   52  C  4  X    0.003481  -0.001944  -0.016835  -0.025710   0.010584
   53  C  4  Y    0.019066  -0.012413  -0.054021   0.031405  -0.000951
   54  C  4  Z    0.000260   0.000279   0.000140   0.000501   0.053280
   55  C  4 XX    0.005572  -0.003952  -0.002853   0.002854   0.001001
   56  C  4 YY   -0.004462   0.000750  -0.000451  -0.001546  -0.000238
   57  C  4 ZZ   -0.003919   0.000679   0.007195  -0.006347  -0.000036
   58  C  4 XY   -0.012120  -0.011969  -0.006251  -0.006074  -0.000262
   59  C  4 XZ    0.000275   0.000160  -0.000024   0.000274   0.000964
   60  C  4 YZ   -0.000164  -0.000049   0.000093   0.000101   0.004710
   61  C  5  S    0.069455  -0.016315  -0.095496  -0.090400   0.002863
   62  C  5  S   -0.142328   0.033426   0.203279   0.201552  -0.005584
   63  C  5  X   -0.009963   0.161709  -0.092153   0.037891  -0.045622
   64  C  5  Y   -0.140503   0.036684   0.086904  -0.030025  -0.007386
   65  C  5  Z   -0.000213   0.000383   0.000074   0.002628   0.124500
   66  C  5  S   -0.096247   0.025819   0.188031   0.168683  -0.010300
   67  C  5  X    0.000882   0.006583  -0.020060   0.018963  -0.012027
   68  C  5  Y   -0.041958   0.011471   0.054456   0.044582  -0.003642
   69  C  5  Z    0.000219   0.000126   0.000168   0.000569   0.042512
   70  C  5 XX   -0.015731   0.002819   0.003287   0.001355   0.000631
   71  C  5 YY    0.004993  -0.000622   0.001336   0.000434  -0.000736
   72  C  5 ZZ    0.005242  -0.001220  -0.006891  -0.006895   0.000315
   73  C  5 XY   -0.002293   0.015162  -0.006306   0.002915   0.001049
   74  C  5 XZ   -0.000064  -0.000002  -0.000009  -0.000115  -0.003209
   75  C  5 YZ   -0.000019   0.000063   0.000018   0.000083   0.000703
   76  C  6  S   -0.121658  -0.075229  -0.060629   0.028883  -0.003205
   77  C  6  S    0.223541   0.137360   0.108465  -0.047637   0.005484
   78  C  6  X    0.041913  -0.002205  -0.151793   0.151644  -0.030442
   79  C  6  Y   -0.018521  -0.013457   0.038516  -0.127392   0.026259
   80  C  6  Z    0.001003   0.000412  -0.001647   0.004853   0.190618
   81  C  6  S    0.226124   0.164587   0.175695  -0.100710   0.009202
   82  C  6  X    0.010861   0.005968  -0.037791   0.038712  -0.013250
   83  C  6  Y   -0.003212  -0.004837   0.013300  -0.052149   0.013234
   84  C  6  Z   -0.000047   0.000023  -0.000386   0.001565   0.098038
   85  C  6 XX    0.006654   0.001869  -0.006281   0.008178  -0.002144
   86  C  6 YY    0.003093   0.003565   0.006915  -0.004101  -0.000246
   87  C  6 ZZ    0.004866   0.003725   0.009082  -0.012214   0.003546
   88  C  6 XY   -0.000925   0.000886   0.011975  -0.012910   0.001119
   89  C  6 XZ    0.000031   0.000031  -0.000167   0.000723   0.006184
   90  C  6 YZ    0.000079   0.000174   0.000672  -0.000099   0.012522
   91  C  7  S    0.104543  -0.141728   0.054882   0.024003  -0.004291
   92  C  7  S   -0.194369   0.261339  -0.099624  -0.041372   0.007359
   93  C  7  X    0.041370  -0.005724  -0.123094  -0.105114   0.024773
   94  C  7  Y    0.008070  -0.011024  -0.035230  -0.094363   0.025801
   95  C  7  Z    0.000242  -0.000328   0.000101   0.001564   0.118680
   96  C  7  S   -0.177619   0.283371  -0.147085  -0.077313   0.013129
   97  C  7  X    0.006208  -0.005897  -0.031696  -0.024431   0.010823
   98  C  7  Y   -0.001057  -0.002920  -0.012573  -0.038613   0.011998
   99  C  7  Z   -0.000242   0.000151  -0.000018   0.001210   0.064356
  100  C  7 XX   -0.007069   0.005049   0.005837   0.006939  -0.001361
  101  C  7 YY   -0.002822   0.006029  -0.005009  -0.001842   0.000699
  102  C  7 ZZ   -0.004691   0.007621  -0.007515  -0.008730   0.001665
  103  C  7 XY   -0.001427  -0.001517   0.010749   0.010257  -0.002396
  104  C  7 XZ    0.000028   0.000030  -0.000067   0.000085  -0.003759
  105  C  7 YZ    0.000029  -0.000188   0.000350   0.000119   0.007804
  106  H  8  S   -0.045664  -0.071828  -0.002004  -0.087614   0.138332
  107  H  8  S   -0.008776  -0.014202   0.000107  -0.052112   0.098863
  108  H  9  S   -0.047255  -0.074988  -0.003108  -0.103429  -0.172853
  109  H  9  S   -0.008795  -0.014910  -0.000461  -0.060179  -0.118429
  110  H 10  S    0.072774   0.047189   0.065868  -0.072133   0.110286
  111  H 10  S    0.012713   0.009894   0.030154  -0.044386   0.074493
  112  H 11  S    0.072312   0.046147   0.062620  -0.074428  -0.081441
  113  H 11  S    0.012491   0.009266   0.028474  -0.046615  -0.057039
  114  H 12  S    0.067694   0.053652   0.097031  -0.049853   0.002234
  115  H 12  S    0.009927   0.012047   0.046568  -0.035934   0.001269
  116  H 13  S   -0.055039   0.094883  -0.082211  -0.035806   0.008553
  117  H 13  S   -0.007629   0.020771  -0.041127  -0.028466   0.003984
  118  H 14  S   -0.065700   0.093267  -0.057686  -0.055483  -0.047470
  119  H 14  S   -0.013272   0.021117  -0.026228  -0.034189  -0.032246
  120  H 15  S   -0.065658   0.092215  -0.055581  -0.054044   0.072384
  121  H 15  S   -0.013287   0.020775  -0.025139  -0.033716   0.048111

                     16         17         18         19         20
                   -0.6550    -0.6500    -0.6169    -0.6056    -0.5951
                     A          A          A          A          A   
    1  O  1  S   -0.018974  -0.036678  -0.000709  -0.036888  -0.021627
    2  O  1  S    0.040593   0.085559   0.001905   0.082732   0.049962
    3  O  1  X   -0.166653   0.092931  -0.001176  -0.002027  -0.137696
    4  O  1  Y   -0.065549  -0.140399  -0.003663  -0.213534  -0.145494
    5  O  1  Z    0.017620   0.003386   0.066359  -0.002602   0.000872
    6  O  1  S    0.075585   0.133510   0.001752   0.152396   0.087277
    7  O  1  X   -0.098857   0.050681  -0.000624  -0.000588  -0.090881
    8  O  1  Y   -0.035838  -0.079907  -0.002624  -0.128376  -0.087708
    9  O  1  Z    0.011547   0.002227   0.041780  -0.001489   0.000581
   10  O  1 XX   -0.000061   0.001502   0.000178   0.003313   0.003667
   11  O  1 YY   -0.005495  -0.010090  -0.000181  -0.015787  -0.009923
   12  O  1 ZZ   -0.000816   0.002523   0.000162   0.002104   0.002068
   13  O  1 XY   -0.010253   0.007447  -0.000154  -0.001682  -0.007976
   14  O  1 XZ    0.000010  -0.000001  -0.000576   0.000019   0.000015
   15  O  1 YZ    0.001857   0.000285   0.006423  -0.000296   0.000100
   16  O  2  S   -0.017819   0.046362   0.000169  -0.006572   0.037964
   17  O  2  S    0.038113  -0.108946  -0.000082   0.014623  -0.085243
   18  O  2  X    0.218995   0.139643  -0.004639  -0.123227  -0.157073
   19  O  2  Y   -0.069522   0.238658   0.001560  -0.049737   0.311568
   20  O  2  Z    0.021696   0.002547  -0.114366   0.002713   0.003976
   21  O  2  S    0.074122  -0.179124  -0.001911   0.029012  -0.177302
   22  O  2  X    0.130393   0.078940  -0.003075  -0.080119  -0.099580
   23  O  2  Y   -0.037740   0.132454   0.000452  -0.030739   0.181150
   24  O  2  Z    0.014132   0.001710  -0.073610   0.001663   0.002695
   25  O  2 XX   -0.000392  -0.004734   0.000066   0.000723  -0.005418
   26  O  2 YY   -0.005743   0.015481   0.000152  -0.004034   0.020881
   27  O  2 ZZ   -0.000271  -0.004681   0.000099   0.000621  -0.004368
   28  O  2 XY    0.014500   0.010279  -0.000272  -0.006920  -0.010980
   29  O  2 XZ   -0.000100  -0.000017   0.000057  -0.000006  -0.000012
   30  O  2 YZ    0.002296   0.000248  -0.011465   0.000291   0.000412
   31  C  3  S   -0.007148   0.001033   0.000865   0.027087  -0.014054
   32  C  3  S    0.003084  -0.003389  -0.000682  -0.047880   0.022269
   33  C  3  X    0.032225  -0.171590   0.002563   0.062590   0.029391
   34  C  3  Y    0.250515   0.028342   0.001170  -0.048025   0.108592
   35  C  3  Z    0.054059   0.003099  -0.083988   0.005147  -0.004415
   36  C  3  S    0.036073  -0.001997  -0.005061  -0.101264   0.049378
   37  C  3  X    0.013896  -0.097920   0.001635   0.026021  -0.005370
   38  C  3  Y    0.132201   0.014105   0.000010  -0.024781   0.063442
   39  C  3  Z    0.031145   0.001957  -0.048776   0.002373  -0.001675
   40  C  3 XX   -0.012253  -0.000430   0.000311   0.009677  -0.011829
   41  C  3 YY   -0.000864  -0.000378   0.000311  -0.003710   0.005275
   42  C  3 ZZ    0.016610   0.001313  -0.000392  -0.007051   0.009670
   43  C  3 XY   -0.000342   0.007835  -0.000278  -0.007205  -0.007885
   44  C  3 XZ   -0.000072   0.000040  -0.006003   0.000220   0.000097
   45  C  3 YZ    0.003005   0.000048  -0.006209   0.000730  -0.000841
   46  C  4  S    0.005878   0.023545  -0.000741  -0.000246   0.021931
   47  C  4  S   -0.013887  -0.057765   0.001339  -0.004218  -0.047814
   48  C  4  X   -0.216841   0.179869  -0.006537  -0.123912  -0.159437
   49  C  4  Y    0.053605   0.098474   0.004917   0.204063   0.092226
   50  C  4  Z    0.028003   0.004526   0.099841  -0.006063   0.001130
   51  C  4  S   -0.017604  -0.050278   0.003720   0.006277  -0.067052
   52  C  4  X   -0.069473   0.050291  -0.002027  -0.031934  -0.054203
   53  C  4  Y    0.008003   0.012179   0.000425   0.041218   0.006049
   54  C  4  Z    0.011276   0.001599   0.050275  -0.003180   0.000933
   55  C  4 XX   -0.004036  -0.003061   0.000027  -0.001540   0.004834
   56  C  4 YY   -0.000115   0.002460   0.000076  -0.003285  -0.007505
   57  C  4 ZZ    0.000058   0.002536  -0.000276   0.000329   0.001202
   58  C  4 XY    0.001313   0.003568  -0.000712  -0.016366   0.001464
   59  C  4 XZ    0.000100  -0.000304  -0.010816   0.000482  -0.000177
   60  C  4 YZ    0.000864  -0.000082   0.002680  -0.000482   0.000099
   61  C  5  S    0.001206  -0.023891  -0.000874  -0.016485   0.004068
   62  C  5  S   -0.007389   0.058934   0.001902   0.032709  -0.001420
   63  C  5  X    0.211466   0.189148  -0.002558  -0.073363  -0.143503
   64  C  5  Y    0.082301  -0.143866   0.000101   0.064323  -0.279653
   65  C  5  Z    0.027309   0.002981  -0.128962   0.003348   0.004288
   66  C  5  S    0.010908   0.036130   0.003204   0.057927  -0.047689
   67  C  5  X    0.065866   0.054616  -0.000503  -0.032118  -0.060519
   68  C  5  Y    0.015464  -0.011321  -0.000406   0.018885  -0.057219
   69  C  5  Z    0.010104   0.001037  -0.060786   0.001830   0.002140
   70  C  5 XX   -0.001750  -0.002438  -0.000247  -0.002469  -0.015705
   71  C  5 YY    0.001162   0.001940   0.000305   0.002618   0.012797
   72  C  5 ZZ    0.000637  -0.003584  -0.000072  -0.000400  -0.002912
   73  C  5 XY   -0.005798  -0.000600   0.000276   0.007988  -0.005092
   74  C  5 XZ   -0.000380   0.000074  -0.003861  -0.000019   0.000306
   75  C  5 YZ    0.000019  -0.000083   0.001814   0.000044  -0.000197
   76  C  6  S    0.012509  -0.002636   0.000335   0.002058   0.000340
   77  C  6  S   -0.018667  -0.001097  -0.000380  -0.004410   0.003048
   78  C  6  X    0.119144  -0.009005   0.005697   0.309363   0.054331
   79  C  6  Y   -0.121150   0.225897   0.007190   0.149366  -0.137516
   80  C  6  Z    0.045276   0.005289   0.315889  -0.008648   0.010018
   81  C  6  S   -0.054635   0.017130  -0.002367  -0.012848  -0.006773
   82  C  6  X    0.049670   0.019673   0.004063   0.175666   0.025243
   83  C  6  Y   -0.054332   0.112409   0.005284   0.097135  -0.070237
   84  C  6  Z    0.023479   0.003650   0.164146  -0.002944   0.005520
   85  C  6 XX    0.007684  -0.009740  -0.001007  -0.004382   0.008891
   86  C  6 YY   -0.002072  -0.001833  -0.001509  -0.008728  -0.001532
   87  C  6 ZZ   -0.010376   0.015459   0.002146   0.007226  -0.010257
   88  C  6 XY   -0.008803   0.002216  -0.002357  -0.020404  -0.002039
   89  C  6 XZ    0.001980  -0.001217   0.005697  -0.001647   0.000993
   90  C  6 YZ    0.002756  -0.000541   0.022579  -0.003183   0.001052
   91  C  7  S    0.019056   0.005061   0.000044   0.000078  -0.004510
   92  C  7  S   -0.032902  -0.006932   0.000064  -0.002079   0.006097
   93  C  7  X   -0.125961   0.007925  -0.002708  -0.100081   0.228547
   94  C  7  Y   -0.109489  -0.182343   0.007190   0.137544   0.063621
   95  C  7  Z    0.030451   0.004832  -0.244743   0.004010   0.013436
   96  C  7  S   -0.059238  -0.013919  -0.000912   0.002801   0.019001
   97  C  7  X   -0.058673   0.018570  -0.002066  -0.058922   0.122934
   98  C  7  Y   -0.051592  -0.091737   0.004525   0.075903   0.021410
   99  C  7  Z    0.015787   0.002837  -0.128460   0.001850   0.007832
  100  C  7 XX    0.007451   0.008106  -0.000842  -0.006484  -0.006918
  101  C  7 YY   -0.001653   0.002747  -0.001035  -0.002824   0.006107
  102  C  7 ZZ   -0.010097  -0.012601   0.001781   0.008876   0.006107
  103  C  7 XY    0.008911   0.001212   0.001201   0.007743  -0.014653
  104  C  7 XZ   -0.000629   0.000626   0.003787  -0.000847   0.000072
  105  C  7 YZ    0.002061  -0.000480  -0.017567   0.001306   0.000405
  106  H  8  S    0.122320   0.009785  -0.044335  -0.038507   0.053357
  107  H  8  S    0.082064   0.006370  -0.031621  -0.022563   0.039458
  108  H  9  S    0.073181   0.007703   0.042207  -0.045598   0.060898
  109  H  9  S    0.044470   0.005110   0.030125  -0.026677   0.043943
  110  H 10  S   -0.036056   0.084440   0.168245   0.028062  -0.049212
  111  H 10  S   -0.022118   0.059274   0.123756   0.013991  -0.037763
  112  H 11  S   -0.079742   0.084776  -0.158959   0.053880  -0.061167
  113  H 11  S   -0.052500   0.060471  -0.118777   0.034483  -0.047229
  114  H 12  S   -0.024124  -0.072327  -0.015339  -0.210027   0.026621
  115  H 12  S   -0.009232  -0.033289  -0.008668  -0.125339   0.024663
  116  H 13  S   -0.034540   0.063513  -0.009716  -0.102244   0.092264
  117  H 13  S   -0.014010   0.031437  -0.005914  -0.068514   0.049342
  118  H 14  S   -0.074176  -0.069074   0.131809   0.042588   0.031645
  119  H 14  S   -0.046630  -0.047827   0.097791   0.029428   0.028809
  120  H 15  S   -0.042809  -0.069173  -0.122466   0.053002   0.042138
  121  H 15  S   -0.025188  -0.048497  -0.092147   0.037956   0.036912

                     21         22         23         24         25
                   -0.5785    -0.5497    -0.5206    -0.4791    -0.4339
                     A          A          A          A          A   
    1  O  1  S    0.002406   0.008132   0.030272  -0.000141   0.000961
    2  O  1  S   -0.005265  -0.015487  -0.062099   0.000200  -0.002031
    3  O  1  X    0.009204   0.012275  -0.090312   0.006905   0.075916
    4  O  1  Y    0.016727   0.088774   0.346305  -0.003261   0.006914
    5  O  1  Z   -0.005269   0.001531   0.002369  -0.010911   0.480829
    6  O  1  S   -0.010793  -0.046272  -0.163304   0.001262  -0.005153
    7  O  1  X    0.005967   0.005650  -0.055745   0.004743   0.055928
    8  O  1  Y    0.010042   0.056096   0.220321  -0.002040   0.004583
    9  O  1  Z   -0.003921   0.001124   0.001983  -0.005436   0.371871
   10  O  1 XX   -0.000232  -0.001324  -0.004113   0.000019   0.000043
   11  O  1 YY    0.001228   0.007143   0.025166  -0.000237   0.000559
   12  O  1 ZZ   -0.000120   0.000162  -0.001981   0.000004   0.000001
   13  O  1 XY    0.000369   0.001870  -0.005795   0.000272   0.002244
   14  O  1 XZ   -0.000201   0.000003  -0.000016   0.001087  -0.000992
   15  O  1 YZ   -0.000533   0.000155   0.000268  -0.001504   0.035035
   16  O  2  S   -0.000807   0.013509   0.000822   0.000078   0.000749
   17  O  2  S    0.001762  -0.027547   0.001767  -0.000024  -0.001541
   18  O  2  X   -0.006516   0.075391  -0.010907  -0.004254  -0.066799
   19  O  2  Y   -0.008416   0.215387   0.054186  -0.001938  -0.001021
   20  O  2  Z    0.032665   0.003353   0.006511   0.473105   0.008219
   21  O  2  S    0.004018  -0.084267  -0.018016  -0.000904  -0.004291
   22  O  2  X   -0.003782   0.046650  -0.000978  -0.003322  -0.050244
   23  O  2  Y   -0.004625   0.128907   0.036371  -0.001661  -0.001647
   24  O  2  Z    0.020094   0.002182   0.004693   0.346418   0.008884
   25  O  2 XX    0.000116  -0.003935  -0.000555   0.000129   0.000428
   26  O  2 YY   -0.000566   0.014696   0.004958  -0.000088  -0.000036
   27  O  2 ZZ    0.000104  -0.001881   0.000794   0.000097   0.000070
   28  O  2 XY   -0.000330   0.005567  -0.002389  -0.000237  -0.002257
   29  O  2 XZ    0.000291  -0.000034  -0.000032  -0.000855  -0.001228
   30  O  2 YZ    0.002817   0.000313   0.000567   0.038353  -0.000221
   31  C  3  S    0.001568   0.012155   0.005801   0.000280   0.006975
   32  C  3  S   -0.000999  -0.026831  -0.016295   0.000389  -0.012985
   33  C  3  X    0.003967  -0.130609   0.155687  -0.001364  -0.001715
   34  C  3  Y   -0.004209   0.116302   0.145851  -0.000743   0.038717
   35  C  3  Z   -0.263061   0.001434   0.007833  -0.096915  -0.080404
   36  C  3  S   -0.011437  -0.033055   0.000722  -0.004939  -0.052059
   37  C  3  X    0.006117  -0.083006   0.098804  -0.001169  -0.000904
   38  C  3  Y   -0.002059   0.061811   0.079741  -0.001382   0.032775
   39  C  3  Z   -0.156107   0.001631   0.006160  -0.070046  -0.058002
   40  C  3 XX    0.000543  -0.007375  -0.015009   0.000293  -0.002431
   41  C  3 YY    0.000860   0.003653   0.008022   0.000345   0.001144
   42  C  3 ZZ   -0.001800   0.006471   0.010583  -0.000713   0.001033
   43  C  3 XY   -0.000097   0.009571  -0.005994   0.000014   0.000336
   44  C  3 XZ    0.001256   0.000102   0.000028   0.006038  -0.006324
   45  C  3 YZ   -0.022036  -0.000236   0.000060  -0.014996  -0.013963
   46  C  4  S   -0.002085  -0.002500   0.004332  -0.000360  -0.001045
   47  C  4  S    0.004572   0.006740  -0.006899   0.001045   0.002080
   48  C  4  X    0.003786   0.080168  -0.107886   0.001089  -0.018594
   49  C  4  Y   -0.010718  -0.068333  -0.278313   0.003099  -0.002955
   50  C  4  Z   -0.003362   0.002333   0.002646  -0.023969   0.251760
   51  C  4  S    0.007745  -0.005882  -0.031993  -0.000015   0.002646
   52  C  4  X    0.004669   0.022321  -0.062035   0.002871   0.017642
   53  C  4  Y   -0.001963  -0.025903  -0.103956   0.001167  -0.002934
   54  C  4  Z   -0.000484   0.001053   0.001099  -0.003652   0.231753
   55  C  4 XX   -0.000447  -0.005479  -0.024979   0.000368  -0.000864
   56  C  4 YY    0.000947   0.006938   0.026040  -0.000273   0.000743
   57  C  4 ZZ   -0.000377   0.000245  -0.000695  -0.000042  -0.000167
   58  C  4 XY   -0.000752   0.007809  -0.004922  -0.000316  -0.004610
   59  C  4 XZ   -0.011481   0.000007   0.000173  -0.002771   0.000635
   60  C  4 YZ    0.000368   0.000007  -0.000421  -0.001040  -0.034494
   61  C  5  S   -0.000700   0.005003   0.007677  -0.000535  -0.000636
   62  C  5  S    0.001797  -0.008398  -0.014270   0.000989   0.000158
   63  C  5  X   -0.003869   0.128086  -0.060028   0.000158   0.022479
   64  C  5  Y    0.007995  -0.163302  -0.056131   0.002038   0.000542
   65  C  5  Z    0.029701   0.003286   0.004644   0.273016  -0.012522
   66  C  5  S    0.000740  -0.033216  -0.048529   0.004077   0.010179
   67  C  5  X   -0.002875   0.053465  -0.017712  -0.000148  -0.008175
   68  C  5  Y    0.000836  -0.042663  -0.024962   0.000402   0.000579
   69  C  5  Z    0.021987   0.002043   0.002884   0.205011   0.008495
   70  C  5 XX    0.000467  -0.021582  -0.006033   0.000194  -0.000824
   71  C  5 YY   -0.000126   0.017946   0.005185  -0.000135   0.000996
   72  C  5 ZZ    0.000009  -0.001893   0.000252  -0.000015  -0.000253
   73  C  5 XY    0.000543   0.005806  -0.007975   0.000515   0.006188
   74  C  5 XZ    0.012053  -0.000098  -0.000360   0.000679   0.001456
   75  C  5 YZ   -0.001282  -0.000006  -0.000500  -0.039205  -0.002692
   76  C  6  S    0.000159   0.005610   0.006187  -0.000224  -0.002381
   77  C  6  S   -0.000570  -0.012271  -0.015988   0.000342   0.004620
   78  C  6  X   -0.000758  -0.094775   0.089577  -0.000848   0.009557
   79  C  6  Y    0.012588   0.017482   0.241820  -0.003865  -0.018484
   80  C  6  Z    0.196267  -0.002691  -0.005794   0.031347  -0.115202
   81  C  6  S    0.000960  -0.009263  -0.023271   0.002972   0.028290
   82  C  6  X    0.000908  -0.049968   0.072250  -0.000332   0.005050
   83  C  6  Y    0.006643   0.004118   0.151524  -0.003155  -0.017822
   84  C  6  Z    0.107234  -0.001709  -0.002407   0.012463  -0.077277
   85  C  6 XX   -0.001356  -0.001291  -0.020947   0.000267   0.001149
   86  C  6 YY   -0.000704   0.002508   0.004864  -0.000231   0.000298
   87  C  6 ZZ    0.001909   0.001429   0.017107  -0.000161  -0.001544
   88  C  6 XY   -0.001486   0.005867  -0.013713  -0.000049   0.000723
   89  C  6 XZ    0.001233   0.000088  -0.001949  -0.000971   0.005807
   90  C  6 YZ    0.015204   0.000248  -0.002579   0.002806  -0.018139
   91  C  7  S   -0.000281   0.003325   0.006020  -0.000219  -0.002835
   92  C  7  S    0.000077  -0.009822  -0.011376   0.000790   0.005759
   93  C  7  X   -0.005963  -0.200171   0.105119  -0.001583  -0.017619
   94  C  7  Y    0.001499   0.299173  -0.004582  -0.001458  -0.020975
   95  C  7  Z    0.306907   0.000818  -0.007205  -0.142652   0.017145
   96  C  7  S    0.003988  -0.017401  -0.019068  -0.000546   0.020217
   97  C  7  X   -0.003218  -0.129434   0.061382  -0.002092  -0.010923
   98  C  7  Y    0.000528   0.175714  -0.007738   0.001246  -0.014664
   99  C  7  Z    0.163934  -0.000387  -0.003939  -0.084661   0.002032
  100  C  7 XX    0.000614  -0.022254   0.000742  -0.000165   0.001375
  101  C  7 YY    0.000993   0.001178   0.001638  -0.000706  -0.000251
  102  C  7 ZZ   -0.001567   0.020274  -0.000513   0.000807  -0.001121
  103  C  7 XY   -0.000863   0.019818  -0.007939   0.000771   0.000708
  104  C  7 XZ   -0.001131  -0.001807   0.000165  -0.004491   0.001025
  105  C  7 YZ    0.024122   0.002346  -0.001151  -0.018914   0.001260
  106  H  8  S   -0.146020   0.038518   0.064192  -0.067396  -0.048898
  107  H  8  S   -0.109996   0.041994   0.066663  -0.075441  -0.065167
  108  H  9  S    0.135233   0.039852   0.059791   0.063623   0.067954
  109  H  9  S    0.099785   0.042014   0.063794   0.071122   0.087576
  110  H 10  S    0.111553   0.006976   0.085512   0.017061  -0.090353
  111  H 10  S    0.084970   0.010223   0.080461   0.016175  -0.108905
  112  H 11  S   -0.098439   0.006716   0.104474  -0.019293   0.075850
  113  H 11  S   -0.075301   0.009957   0.098943  -0.018827   0.094606
  114  H 12  S   -0.011315   0.037702  -0.160928   0.001173   0.008451
  115  H 12  S   -0.008119   0.025116  -0.126563   0.000360  -0.002299
  116  H 13  S    0.004055  -0.231317   0.054008  -0.003851   0.001761
  117  H 13  S    0.002268  -0.169994   0.041166  -0.001456  -0.003917
  118  H 14  S   -0.167254   0.103814   0.002635   0.094047  -0.016370
  119  H 14  S   -0.131101   0.088287   0.007434   0.099320  -0.018543
  120  H 15  S    0.162375   0.119213  -0.008361  -0.092046   0.002613
  121  H 15  S    0.127126   0.102943  -0.002229  -0.099872   0.002223

                     26         27         28         29         30
                   -0.4302    -0.3981     0.1287     0.1544     0.1947
                     A          A          A          A          A   
    1  O  1  S    0.004392  -0.006913  -0.000181  -0.000507  -0.017786
    2  O  1  S   -0.007002   0.014178  -0.000380   0.000029   0.024993
    3  O  1  X    0.430188   0.407749   0.004028   0.000366   0.001963
    4  O  1  Y    0.051507  -0.028009   0.000345   0.000886   0.056993
    5  O  1  Z   -0.085782   0.005517  -0.353271   0.014214   0.005229
    6  O  1  S   -0.030950   0.052398   0.004966   0.009191   0.194041
    7  O  1  X    0.320060   0.304188   0.005161   0.001082   0.008371
    8  O  1  Y    0.032976  -0.001223   0.001818   0.004225   0.132057
    9  O  1  Z   -0.066856   0.004301  -0.430583   0.034319   0.006112
   10  O  1 XX    0.000512  -0.004103  -0.000202  -0.000399  -0.007224
   11  O  1 YY    0.004366   0.001122  -0.000230  -0.000023   0.003886
   12  O  1 ZZ    0.000569   0.000459  -0.000303  -0.000497  -0.009599
   13  O  1 XY    0.013622   0.014400   0.000166   0.000106   0.000052
   14  O  1 XZ    0.000186   0.000011   0.000680   0.000171   0.000137
   15  O  1 YZ   -0.006348   0.000233   0.000203   0.002036  -0.000134
   16  O  2  S    0.004453   0.006345  -0.000151  -0.000578  -0.016614
   17  O  2  S   -0.007881  -0.009874  -0.000126   0.000091   0.019500
   18  O  2  X   -0.343588   0.424398   0.001668   0.002015  -0.010519
   19  O  2  Y    0.004369   0.061690   0.000451   0.000495   0.040107
   20  O  2  Z   -0.007416   0.000535   0.016768  -0.358611   0.010998
   21  O  2  S   -0.032022  -0.067161   0.002501   0.010334   0.213873
   22  O  2  X   -0.259613   0.321538   0.001381   0.001203  -0.018958
   23  O  2  Y   -0.004207   0.024051   0.001148   0.003890   0.116143
   24  O  2  Z   -0.006065   0.000304   0.033683  -0.459847   0.014707
   25  O  2 XX    0.002757   0.003863  -0.000111  -0.000520  -0.008165
   26  O  2 YY    0.000704   0.001531  -0.000186  -0.000028   0.002504
   27  O  2 ZZ    0.000680   0.000206  -0.000231  -0.000498  -0.010092
   28  O  2 XY   -0.011136   0.016425  -0.000083  -0.000054  -0.000362
   29  O  2 XZ    0.000213  -0.000007   0.000319  -0.001158  -0.000039
   30  O  2 YZ   -0.000333  -0.000051   0.001809   0.000162  -0.000107
   31  C  3  S    0.036768  -0.008132  -0.000343  -0.003352  -0.080610
   32  C  3  S   -0.071420   0.016173  -0.000533   0.003208   0.041570
   33  C  3  X   -0.005251   0.200925   0.002297  -0.000144   0.010768
   34  C  3  Y    0.221678  -0.025509   0.003510   0.005575   0.172214
   35  C  3  Z    0.020444  -0.000759   0.016420   0.042567   0.009125
   36  C  3  S   -0.267467   0.042842   0.011334   0.043210   1.485954
   37  C  3  X    0.009499   0.229137  -0.000747   0.000325   0.016580
   38  C  3  Y    0.191746  -0.028008   0.000520   0.002524   0.640698
   39  C  3  Z    0.015123  -0.000797   0.198426   0.322626   0.021984
   40  C  3 XX   -0.015333  -0.002980   0.000861   0.000269   0.003524
   41  C  3 YY    0.005297   0.001943   0.000193   0.000311  -0.004978
   42  C  3 ZZ    0.009997   0.000409  -0.001383  -0.001196  -0.014998
   43  C  3 XY    0.002064  -0.009394  -0.000370  -0.000277   0.000259
   44  C  3 XZ    0.001161  -0.000078  -0.025138   0.025827  -0.000827
   45  C  3 YZ    0.002571   0.000003  -0.018747  -0.021678   0.000592
   46  C  4  S   -0.001553   0.002917  -0.001183   0.000040   0.001675
   47  C  4  S   -0.000254  -0.003823   0.002527   0.002170   0.059387
   48  C  4  X   -0.099909  -0.120575  -0.001887   0.000785   0.008216
   49  C  4  Y   -0.029705   0.006536   0.003796   0.000741   0.042145
   50  C  4  Z   -0.045804  -0.000774   0.443366  -0.023205  -0.006657
[...]
             51  C  4  S      0.39385     0.27293
             52  C  4  X      0.15793     0.32315
             53  C  4  Y      0.18952     0.30943
             54  C  4  Z      0.07419     0.27678
             55  C  4 XX      0.00662     0.14842
             56  C  4 YY     -0.00526     0.13096
             57  C  4 ZZ      0.03346     0.20260
             58  C  4 XY      0.01275     0.02451
             59  C  4 XZ      0.03736     0.07771
             60  C  4 YZ      0.02277     0.04387
             61  C  5  S      1.99700     1.97303
             62  C  5  S      0.69760     0.35757
             63  C  5  X      0.70334     0.61494
             64  C  5  Y      0.50588     0.45183
             65  C  5  Z      0.63817     0.56743
             66  C  5  S      0.39950     0.27422
             67  C  5  X      0.15071     0.32343
             68  C  5  Y      0.17750     0.30507
             69  C  5  Z      0.09422     0.28039
             70  C  5 XX      0.01762     0.16880
             71  C  5 YY     -0.00275     0.13552
             72  C  5 ZZ      0.02420     0.18359
             73  C  5 XY      0.01487     0.02815
             74  C  5 XZ      0.03371     0.07094
             75  C  5 YZ      0.02060     0.04070
             76  C  6  S      1.99664     1.98073
             77  C  6  S      0.63086     0.35447
             78  C  6  X      0.68756     0.62480
             79  C  6  Y      0.70408     0.63635
             80  C  6  Z      0.70916     0.64461
             81  C  6  S      0.66440     0.32981
             82  C  6  X      0.32681     0.44111
             83  C  6  Y      0.41081     0.49898
             84  C  6  Z      0.37647     0.45596
             85  C  6 XX      0.01210     0.14976
             86  C  6 YY      0.02037     0.15642
             87  C  6 ZZ      0.01682     0.15517
             88  C  6 XY      0.01189     0.01909
             89  C  6 XZ      0.01311     0.01923
             90  C  6 YZ      0.00543     0.00843
             91  C  7  S      1.99663     1.98074
             92  C  7  S      0.63203     0.35497
             93  C  7  X      0.67919     0.61942
             94  C  7  Y      0.70547     0.63672
             95  C  7  Z      0.71300     0.64614
             96  C  7  S      0.66569     0.32990
             97  C  7  X      0.28601     0.41020
             98  C  7  Y      0.41263     0.49914
             99  C  7  Z      0.41001     0.48401
            100  C  7 XX      0.01387     0.15370
            101  C  7 YY      0.02093     0.15726
            102  C  7 ZZ      0.02038     0.15770
            103  C  7 XY      0.00834     0.01440
            104  C  7 XZ      0.00817     0.01300
            105  C  7 YZ      0.00812     0.01180
            106  H  8  S      0.52355     0.49123
            107  H  8  S      0.26164     0.33374
            108  H  9  S      0.51879     0.48540
            109  H  9  S      0.26789     0.33487
            110  H 10  S      0.51985     0.48333
            111  H 10  S      0.29765     0.34822
            112  H 11  S      0.51468     0.47785
            113  H 11  S      0.25993     0.33494
            114  H 12  S      0.52130     0.48357
            115  H 12  S      0.27320     0.33966
            116  H 13  S      0.52077     0.48277
            117  H 13  S      0.26811     0.33765
            118  H 14  S      0.51987     0.48368
            119  H 14  S      0.29176     0.34635
            120  H 15  S      0.51715     0.48078
            121  H 15  S      0.27816     0.34060

          ----- MULLIKEN ATOMIC OVERLAP POPULATIONS -----
          (OFF-DIAGONAL ELEMENTS NEED TO BE MULTIPLIED BY 2)

             1           2           3           4           5

    1    8.0704412
    2   -0.0000145   8.0946835
    3   -0.0876895  -0.0913337   5.5377280
    4    0.5911708   0.0023741   0.3083529   4.3871612
    5    0.0010392   0.5670579   0.2924620  -0.0214279   4.4246611
    6   -0.0740023  -0.0038827  -0.1116946   0.3471888   0.0018132
    7   -0.0003145  -0.0688641  -0.1011291   0.0011605   0.3572413
    8    0.0038477   0.0028318   0.3747195  -0.0315286  -0.0275011
    9    0.0023572   0.0001191   0.3692964  -0.0243121  -0.0265272
   10    0.0011443   0.0000835   0.0012472  -0.0296430   0.0001703
   11    0.0015754   0.0077017   0.0012999  -0.0274831  -0.0000394
   12    0.0040411   0.0000943   0.0050634  -0.0356963  -0.0001931
   13   -0.0000003   0.0040026   0.0050604  -0.0001010  -0.0362113
   14   -0.0000008   0.0014040   0.0021728   0.0002797  -0.0305504
   15    0.0005009   0.0010442   0.0025068  -0.0004198  -0.0298214

             6           7           8           9          10

    6    5.2967202
    7   -0.0000747   5.2543887
    8    0.0040738   0.0020123   0.4761563
    9    0.0027719   0.0019269  -0.0184013   0.4793722
   10    0.3720601  -0.0000013  -0.0002073   0.0004553   0.5143500
   11    0.3715736   0.0001932   0.0000006  -0.0001240  -0.0228162
   12    0.3799439   0.0000046  -0.0000812  -0.0000223  -0.0193415
   13    0.0000033   0.3830378   0.0000558  -0.0001071   0.0000000
   14   -0.0000008   0.3752423  -0.0004680  -0.0002700   0.0000002
   15    0.0000217   0.3756538  -0.0003213   0.0001355  -0.0000003

            11          12          13          14          15

   11    0.4588110
   12   -0.0160717   0.4767671
   13   -0.0000033  -0.0000001   0.4702618
   14   -0.0000024  -0.0000000  -0.0193574   0.5074243
   15   -0.0000118  -0.0000005  -0.0177579  -0.0242461   0.4880304

          TOTAL MULLIKEN AND LOWDIN ATOMIC POPULATIONS
       ATOM         MULL.POP.    CHARGE          LOW.POP.     CHARGE
    1 O             8.514096   -0.514096         8.285867   -0.285867
    2 O             8.517302   -0.517302         8.290529   -0.290529
    3 C             6.508063   -0.508063         6.342766   -0.342766
    4 C             5.467076    0.532924         5.776582    0.223418
    5 C             5.472173    0.527827         5.775622    0.224378
    6 C             6.586515   -0.586515         6.474913   -0.474913
    7 C             6.580478   -0.580478         6.469096   -0.469096
    8 H             0.785189    0.214811         0.824961    0.175039
    9 H             0.786670    0.213330         0.820271    0.179729
   10 H             0.817501    0.182499         0.831545    0.168455
   11 H             0.774604    0.225396         0.812788    0.187212
   12 H             0.794508    0.205492         0.823224    0.176776
   13 H             0.788883    0.211117         0.820421    0.179579
   14 H             0.811627    0.188373         0.830032    0.169968
   15 H             0.795314    0.204686         0.821381    0.178619

          -------------------------------
          BOND ORDER AND VALENCE ANALYSIS     BOND ORDER THRESHOLD=0.050
          -------------------------------

                   BOND                       BOND                       BOND
  ATOM PAIR DIST  ORDER      ATOM PAIR DIST  ORDER      ATOM PAIR DIST  ORDER
    1   4  1.192  1.885        2   5  1.192  1.861        3   4  1.528  0.918
    3   5  1.529  0.909        3   8  1.081  0.942        3   9  1.085  0.935
    4   6  1.507  0.950        5   7  1.508  0.958        6  10  1.087  0.941
    6  11  1.084  0.924        6  12  1.081  0.948        7  13  1.081  0.946
    7  14  1.086  0.941        7  15  1.086  0.936

                       TOTAL       BONDED        FREE
      ATOM            VALENCE     VALENCE     VALENCE
    1 O                 1.928       1.928       0.000
    2 O                 1.911       1.911       0.000
    3 C                 3.654       3.654       0.000
    4 C                 3.709       3.709      -0.000
    5 C                 3.688       3.688      -0.000
    6 C                 3.739       3.739      -0.000
    7 C                 3.763       3.763       0.000
    8 H                 0.922       0.922       0.000
    9 H                 0.920       0.920       0.000
   10 H                 0.928       0.928      -0.000
   11 H                 0.923       0.923       0.000
   12 H                 0.929       0.929      -0.000
   13 H                 0.927       0.927      -0.000
   14 H                 0.926       0.926       0.000
   15 H                 0.921       0.921      -0.000

          ---------------------
          ELECTROSTATIC MOMENTS
          ---------------------

 POINT   1           X           Y           Z (BOHR)    CHARGE
                -0.154546    0.797946    0.090027        0.00 (A.U.)
         DX          DY          DZ         /D/  (DEBYE)
     0.963174    2.494363   -0.344151    2.695921
 ...... END OF PROPERTY EVALUATION ......
 STEP CPU TIME =     0.03 TOTAL CPU TIME =        385.9 (      6.4 MIN)
 TOTAL WALL CLOCK TIME=        395.2 SECONDS, CPU UTILIZATION IS    97.65%
  $VIB   
          IVIB=   0 IATOM=   0 ICOORD=   0 E=     -343.7277799355
 -3.414817991E-05 1.217585702E-04 4.484677771E-05-2.105686458E-05-2.782865871E-04
 -7.333298443E-05 1.024458017E-04-1.705536341E-05 1.476020446E-04-1.922461123E-04
 -2.659891283E-04-1.028114358E-04-1.853530383E-04 3.015436871E-04-1.179391154E-05
 -1.797233438E-04 1.404508981E-04 4.586081242E-04 3.719886007E-04-1.831431478E-05
  9.752201410E-05-4.437481506E-05-5.789892976E-05-8.965499711E-06 8.072799851E-05
  7.755422334E-05-1.528136477E-05-3.620203230E-05-7.335426120E-05-7.660764647E-05
  1.132725491E-04-7.519834853E-05-3.000131205E-04 1.552562402E-04 1.134934473E-04
 -7.523996158E-05-1.513932592E-04 1.402798114E-04 8.462383975E-06-3.555860090E-05
 -6.933418486E-05-4.711035139E-05 5.636505258E-05-3.964951817E-05-4.588506345E-05
  9.631735078E-01 2.494362867E+00-3.441509962E-01
 ......END OF GEOMETRY SEARCH......
 STEP CPU TIME =     0.01 TOTAL CPU TIME =        385.9 (      6.4 MIN)
 TOTAL WALL CLOCK TIME=        395.2 SECONDS, CPU UTILIZATION IS    97.64%
               1145677  WORDS OF DYNAMIC MEMORY USED
 EXECUTION OF GAMESS TERMINATED NORMALLY Thu Apr 30 07:07:13 2026
 DDI: 263640 bytes (0.3 MB / 0 MWords) used by master data server.

 ----------------------------------------
 CPU timing information for all processes
 ========================================
 0: 384.114 + 1.770 = 385.884
 ----------------------------------------
 ddikick.x: exited gracefully.
----- accounting info -----
Files used on the master node chemcompute-node-0.novalocal were:
-rw-r--r--. 1 chemcomp chemcomp     1197 Apr 30 07:00 /scratch/1118332/1594894.F05
-rw-rw-r--. 1 chemcomp chemcomp 55705600 Apr 30 07:07 /scratch/1118332/1594894.F10
Thu Apr 30 07:07:16 UTC 2026
0.086u 0.038s 6:38.64 0.0%	0+0k 8+208io 0pf+0w
Finishing Up...
Wrote IR file to: Gamess.ir
vibramans not found, parsing from GAMESS output
Wrote Raman file to: Gamess.raman
Wrote UV-Vis file to: Gamess.uvvis
Wrote Electronic Energy file to: Gamess.energy
Wrote Geometry Optimization file to: Gamess.molden
Wrote Atomic Charges file to: Gamess.charges
Wrote Dipole Moment file to: Gamess.moments
Wrote all Results to: Gamess.cclib
reading wave-function from mo.molden
Loading data from molden type file mo.molden

Converting the regular grid to a vector grid containing 2.16e+05 grid points...

Starting the calculation of the molecular orbitals...
The grid has been separated into 22 slices each having 1.00e+04 grid points.
The calculation will be carried out using only one process.

	The number of subprocesses can be changed with -p


There are 121 contracted Cartesian AOs and 37 MOs to be calculated.
	Finished 10 % (4 slices in 0.387 s)
	Finished 20 % (2 slices in 0.176 s)
	Finished 30 % (2 slices in 0.173 s)
	Finished 40 % (2 slices in 0.171 s)
	Finished 50 % (2 slices in 0.171 s)
	Finished 60 % (3 slices in 0.258 s)
	Finished 70 % (2 slices in 0.176 s)
	Finished 80 % (2 slices in 0.180 s)
	Finished 90 % (2 slices in 0.183 s)
Converting the output from a vector grid to a regular grid...

Norm of the MOs:
	1.155823	MO 1.A (Occ = 2.00, E = -20.5688 E_h)
	0.758767	MO 2.A (Occ = 2.00, E = -20.5615 E_h)
	0.858425	MO 3.A (Occ = 2.00, E = -11.3495 E_h)
	0.905839	MO 4.A (Occ = 2.00, E = -11.3412 E_h)
	1.167349	MO 5.A (Occ = 2.00, E = -11.2490 E_h)
	1.498831	MO 6.A (Occ = 2.00, E = -11.2398 E_h)
	0.889855	MO 7.A (Occ = 2.00, E = -11.2283 E_h)
	1.003943	MO 8.A (Occ = 2.00, E = -1.4172 E_h)
	0.991879	MO 9.A (Occ = 2.00, E = -1.4068 E_h)
	1.004340	MO 10.A (Occ = 2.00, E = -1.0712 E_h)
	1.005707	MO 11.A (Occ = 2.00, E = -1.0210 E_h)
	1.005468	MO 12.A (Occ = 2.00, E = -0.9753 E_h)
	0.997764	MO 13.A (Occ = 2.00, E = -0.7804 E_h)
	0.997486	MO 14.A (Occ = 2.00, E = -0.7342 E_h)
	1.000431	MO 15.A (Occ = 2.00, E = -0.6732 E_h)
	0.999899	MO 16.A (Occ = 2.00, E = -0.6651 E_h)
	0.998578	MO 17.A (Occ = 2.00, E = -0.6609 E_h)
	0.999308	MO 18.A (Occ = 2.00, E = -0.6237 E_h)
	1.000009	MO 19.A (Occ = 2.00, E = -0.6050 E_h)
	1.000115	MO 20.A (Occ = 2.00, E = -0.5957 E_h)
	0.999673	MO 21.A (Occ = 2.00, E = -0.5738 E_h)
	0.999928	MO 22.A (Occ = 2.00, E = -0.5583 E_h)
	1.000175	MO 23.A (Occ = 2.00, E = -0.5371 E_h)
	0.999654	MO 24.A (Occ = 2.00, E = -0.5110 E_h)
	1.000460	MO 25.A (Occ = 2.00, E = -0.5058 E_h)
	1.001073	MO 26.A (Occ = 2.00, E = -0.4270 E_h)
	1.000734	MO 27.A (Occ = 2.00, E = -0.4066 E_h)
	0.999813	MO 28.A (Occ = 0.00, E = +0.1379 E_h)
	1.000084	MO 29.A (Occ = 0.00, E = +0.1741 E_h)
	1.005199	MO 30.A (Occ = 0.00, E = +0.2313 E_h)
	1.000804	MO 31.A (Occ = 0.00, E = +0.2544 E_h)
	1.001411	MO 32.A (Occ = 0.00, E = +0.2859 E_h)
	0.999495	MO 33.A (Occ = 0.00, E = +0.2939 E_h)
	1.000755	MO 34.A (Occ = 0.00, E = +0.3009 E_h)
	1.000064	MO 35.A (Occ = 0.00, E = +0.3160 E_h)
	1.001393	MO 36.A (Occ = 0.00, E = +0.3229 E_h)
	0.999767	MO 37.A (Occ = 0.00, E = +0.3273 E_h)
[done] wrote 38 entries to mo_cutoffs.json
total density…
JmolData using command options ["-n", "-s", "rho.spt"]
{noDisplay=true, noConsole=true, exit=true, headlessMaxTimeMs=60000, JmolData=true, isDataOnly=true}
Jmol version 16.3.31  2025-07-21 14:08
Operating headless display=null nographicsallowed=true
Executing script from file: rho.spt
jmolapp evalfilearsgs  rho.spt
Executing script: ;exitJmol;
FileManager opening file /data/slurm/159/1594894/rho.spt

FileManager.getAtomSetCollectionFromFile(/data/slurm/159/1594894/Gamess.stdout)
FileManager opening file /data/slurm/159/1594894/Gamess.stdout
The Resolver thinks GamessUS
          *         GAMESS VERSION = 30 JUN 2019 (R1)          *

          1 ELECTRON INTEGRALS
 ...... END OF ONE-ELECTRON INTEGRALS ......
Energy for model 2 = -343.6661471874
121 molecular orbitals read in model 2
Energy for model 2 = -343.6661471874
Molecular dipole for model 2 = {-0.292158, 6.535664, -0.009091}
Energy for model 3 = -343.7135812438
Energy for model 4 = -343.7111157025
Energy for model 5 = -343.7149133220
Energy for model 6 = -343.7158071019
Energy for model 7 = -343.7174597911
Energy for model 8 = -343.7153631077
Energy for model 9 = -343.7172345447
Energy for model 10 = -343.7159059905
Energy for model 11 = -343.7177231303
Energy for model 12 = -343.7177200132
Energy for model 13 = -343.7178722849
Energy for model 14 = -343.7179613661
Energy for model 15 = -343.7180951804
Energy for model 16 = -343.7183690353
Energy for model 17 = -343.7184525660
Energy for model 18 = -343.7178183948
Energy for model 19 = -343.7177492036
Energy for model 20 = -343.7194391053
Energy for model 21 = -343.7196097927
Energy for model 22 = -343.7200825197
Energy for model 23 = -343.7205797107
Energy for model 24 = -343.7212915337
Energy for model 25 = -343.7216574229
Energy for model 26 = -343.7215091399
Energy for model 27 = -343.7214571925
Energy for model 28 = -343.7222896486
Energy for model 29 = -343.7224951150
Energy for model 30 = -343.7227505280
Energy for model 31 = -343.7229528307
Energy for model 32 = -343.7231262787
Energy for model 33 = -343.7233214541
Energy for model 34 = -343.7235836789
Energy for model 35 = -343.7239270095
Energy for model 36 = -343.7232855739
Energy for model 37 = -343.7245477473
Energy for model 38 = -343.7243369895
Energy for model 39 = -343.7249801977
Energy for model 40 = -343.7249577418
Energy for model 41 = -343.7253555025
Energy for model 42 = -343.7255133781
Energy for model 43 = -343.7258490446
Energy for model 44 = -343.7244462044
Energy for model 45 = -343.7259753942
Energy for model 46 = -343.7260467584
Energy for model 47 = -343.7263667100
Energy for model 48 = -343.7265962591
Energy for model 49 = -343.7267560290
Energy for model 50 = -343.7271150196
Energy for model 51 = -343.7268386695
Energy for model 52 = -343.7273317404
Energy for model 53 = -343.7273268510
Energy for model 54 = -343.7275058613
Energy for model 55 = -343.7275450882
Energy for model 56 = -343.7275983839
Energy for model 57 = -343.7276306990
Energy for model 58 = -343.7276604506
Energy for model 59 = -343.7276888691
Energy for model 60 = -343.7277249128
Energy for model 61 = -343.7277403057
Energy for model 62 = -343.7277604077
Energy for model 63 = -343.7277692416
Energy for model 64 = -343.7277757935
Energy for model 65 = -343.7277774630
Energy for model 66 = -343.7277799355
37 molecular orbitals read in model 67
Energy for model 67 = -343.7277799355
Molecular dipole for model 67 = {0.963174, 2.494363, -0.344151}
Time for openFile(/data/slurm/159/1594894/Gamess.stdout): 412 ms
reading 1005 atoms
ModelSet: haveSymmetry:false haveUnitcells:false haveFractionalCoord:false
67 models in this collection. Use getProperty "modelInfo" or getProperty "auxiliaryInfo" to inspect them.
Default Van der Waals type for model set to Babel
1005 atoms created
ModelSet: autobonding; use  autobond=false  to not generate bonds automatically
Time for creating model: 37 ms
67 models
121 molecular orbitals in model 1.2
37 molecular orbitals in model 1.67

MO 27
Molecular orbital #1/121 6-31G(d) RHF OPTIMIZE
15 atoms will be used in the surface calculation
Maximum number of voxels for index=0 exceeded (121) -- set to 80
Maximum number of voxels for index=1 exceeded (83) -- set to 80
generating isosurface data for MO using cutoff 1.9548828E-4
QuantumCalculation:
 origin = [-6.017, -4.243, -3.5059998]
 range (Ang) = [12.204556, 8.404051, 7.1253567]
 steps (Bohr)= [0.28828934, 0.19851588, 0.1896465]
 origin(Bohr)= [-11.370422, -8.018065, -6.6253443]
 steps = [0.28828934, 0.19851588, 0.1896465]
 counts= 80 80 71
calculation type: 6-31G(d) RHF OPTIMIZE OK.
boundbox corners {-4.2541094 -2.4535418 -1.7496649} {4.2784686 2.337874 1.7610412}
rho created  with cutoff=1.9548828E-4; isosurface count: 1
isosurface full data range -1.0 to 1.0 with color scheme spanning -1.0 to 1.0
#created by Jmol Version 16.3.31  2025-07-21 14:08 on Thu Apr 30 07:07:21 UTC 2026
MO
calculation type: 6-31G(d) RHF OPTIMIZE

isosurface resolution for axis 1 set to 6.554929 points/Angstrom; 80 voxels
isosurface resolution for axis 2 set to 9.519219 points/Angstrom; 80 voxels
isosurface resolution for axis 3 set to 9.964414 points/Angstrom; 71 voxels
454400 voxels total

1 id:rho; model:1.2; vertices:11356; polygons:22708; visible:true; dataRange:[-1.0, 1.0, -1.0, 1.0]; title:isosurface rho cutoff 0.013981711951294424 mo density;

<jvxlSurfaceInfo 
  isModelConnected="true" 
  cutoff="1.9548828E-4" 
  isCutoffAbsolute="true" 
  pointsPerAngstrom="6.554929" 
  nBytesData="40874" 
  isXLowToHigh="false" 
  nSurfaceInts="3742" 
  nBytesUncompressedEdgeData="11355" 
  nBytesUncompressedColorData="25600" 
  precisionColor="true" 
  bicolorMap="true" 
  colorNegative="[xff0000]" 
  colorPositive="[x0000ff]" 
  color="[xffa500]" 
  translucency="0.0" 
  rendering="fill noMesh noDots notFrontOnly frontlit" 
  slabbable="true" 
  xyzMin="{-4.2541094 -2.4535418 -1.7496649}" 
  xyzMax="{4.2784686 2.337874 1.7610412}" 
  approximateCompressionRatio="not calculated" 
  jmolVersion="Jmol 16.3.31  2025-07-21 14:08">
</jvxlSurfaceInfo>


chemcompute.org
{'UTCtimestamp': '2026-04-30T07:07:31.737816', 'cluster': 'jetstream2', 'clusterJobNumber': '1118332', 'status': 'COMPLETE', 'nodeList': 'chemcompute-node-0'}
1118332
