----- GAMESS execution script 'rungms' -----
This job is running on host chemcompute-node-0.novalocal
under operating system Linux at Thu Apr 30 07:35:55 UTC 2026
SLURM has assigned the following compute nodes to this run:
Available scratch disk space (Kbyte units) at beginning of the job is
Filesystem     1K-blocks     Used Available Use% Mounted on
/dev/sda4       61775852 12565976  49209876  21% /
GAMESS temporary binary files will be written to /scratch/1118337
GAMESS supplementary output files will be written to /data/slurm/159/1594899
Copying input file 1594899.inp to your run's scratch directory...
The generated host list is
chemcompute-node-0.novalocal

 Distributed Data Interface kickoff program.
 Initiating 1 compute processes on 1 nodes to run the following command:
 /data/gamess-2019R1-avx2-ddi/gamess.00.x 1594899 

          ******************************************************
          *         GAMESS VERSION = 30 JUN 2019 (R1)          *
          *             FROM IOWA STATE UNIVERSITY             *
          * M.W.SCHMIDT, K.K.BALDRIDGE, J.A.BOATZ, S.T.ELBERT, *
          *   M.S.GORDON, J.H.JENSEN, S.KOSEKI, N.MATSUNAGA,   *
          *          K.A.NGUYEN, S.J.SU, T.L.WINDUS,           *
          *       TOGETHER WITH M.DUPUIS, J.A.MONTGOMERY       *
          *         J.COMPUT.CHEM.  14, 1347-1363(1993)        *
          **************** 64 BIT INTEL VERSION ****************

  SINCE 1993, STUDENTS AND POSTDOCS WORKING AT IOWA STATE UNIVERSITY
  AND ALSO IN THEIR VARIOUS JOBS AFTER LEAVING ISU HAVE MADE IMPORTANT
  CONTRIBUTIONS TO THE CODE:
     IVANA ADAMOVIC, CHRISTINE AIKENS, YURI ALEXEEV, POOJA ARORA,
     ANDREY ASADCHEV, ROB BELL, PRADIPTA BANDYOPADHYAY, JONATHAN BENTZ,
     COLLEEN BERTONI, BRETT BODE, KURT BRORSEN, CALEB CARLIN, GALINA CHABAN,
     WEI CHEN, CHEOL HO CHOI, PAUL DAY, ALBERT DEFUSCO, NUWAN DESILVA,
     TIM DUDLEY, DMITRI FEDOROV, ALEX FINDLATER, GRAHAM FLETCHER, 
     MARK FREITAG, KURT GLAESEMANN, ANASTASIA GUNINA,
     DAN KEMP, GRANT MERRILL, NORIYUKI MINEZAWA, JONATHAN MULLIN,
     TAKESHI NAGATA, SEAN NEDD, HEATHER NETZLOFF, BOSILJKA NJEGIC, RYAN OLSON,
     MIKE PAK, BUU PHAM,
     SPENCER PRUITT, LUKE ROSKOP, JIM SHOEMAKER, LYUDMILA SLIPCHENKO,
     TONY SMITH, SAROM SOK LEANG, JIE SONG, TETSUYA TAKETSUGU, SIMON WEBB,
     PENG XU, SOOHAENG YOO, FEDERICO ZAHARIEV

  ADDITIONAL CODE HAS BEEN PROVIDED BY COLLABORATORS IN OTHER GROUPS:
     IOWA STATE UNIVERSITY:
          JOE IVANIC, AARON WEST, LAIMUTIS BYTAUTAS, KLAUS RUEDENBERG
     UNIVERSITY OF TOKYO: KIMIHIKO HIRAO, TAKAHITO NAKAJIMA,
          TAKAO TSUNEDA, MUNEAKI KAMIYA, SUSUMU YANAGISAWA,
          KIYOSHI YAGI, MAHITO CHIBA, SEIKEN TOKURA, NAOAKI KAWAKAMI
     UNIVERSITY OF AARHUS: FRANK JENSEN
     UNIVERSITY OF IOWA: VISVALDAS KAIRYS, HUI LI
     NATIONAL INST. OF STANDARDS AND TECHNOLOGY: WALT STEVENS, DAVID GARMER
     UNIVERSITY OF PISA: BENEDETTA MENNUCCI, JACOPO TOMASI
     UNIVERSITY OF MEMPHIS: HENRY KURTZ, PRAKASHAN KORAMBATH
     UNIVERSITY OF ALBERTA: TOBY ZENG, MARIUSZ KLOBUKOWSKI
     UNIVERSITY OF NEW ENGLAND: MARK SPACKMAN
     MIE UNIVERSITY: HIROAKI UMEDA
     NAT. INST. OF ADVANCED INDUSTRIAL SCIENCE AND TECHNOLOGY: KAZUO KITAURA
     MICHIGAN STATE UNIVERSITY:
          KAROL KOWALSKI, MARTA WLOCH, JEFFREY GOUR, JESSE LUTZ,
          WEI LI, JUN SHEN, J. EMILIANO DEUSTUA, PIOTR PIECUCH
     UNIVERSITY OF MINNESOTA:
          YINAN SHU
     UNIVERSITY OF SILESIA: MONIKA MUSIAL, STANISLAW KUCHARSKI
     FACULTES UNIVERSITAIRES NOTRE-DAME DE LA PAIX:
          OLIVIER QUINET, BENOIT CHAMPAGNE
     UNIVERSITY OF CALIFORNIA - SANTA BARBARA: BERNARD KIRTMAN
     INSTITUTE FOR MOLECULAR SCIENCE:
          KAZUYA ISHIMURA, MICHIO KATOUDA, AND SHIGERU NAGASE
     UNIVERSITY OF NOTRE DAME: ANNA POMOGAEVA, DAN CHIPMAN
     KYUSHU UNIVERSITY:
          HARUYUKI NAKANO,
          FENG LONG GU, JACEK KORCHOWIEC, MARCIN MAKOWSKI, AND YURIKO AOKI,
          HIROTOSHI MORI AND EISAKU MIYOSHI
     PENNSYLVANIA STATE UNIVERSITY:
          TZVETELIN IORDANOV, CHET SWALINA, JONATHAN SKONE,
          SHARON HAMMES-SCHIFFER
     WASEDA UNIVERSITY:
          MASATO KOBAYASHI, TOMOKO AKAMA, TSUGUKI TOUMA,
          TAKESHI YOSHIKAWA, YASUHIRO IKABATA, JUNJI SEINO,
          YUYA NAKAJIMA, HIROMI NAKAI
     NANJING UNIVERSITY: SHUHUA LI
     UNIVERSITY OF NEBRASKA:
          PEIFENG SU, DEJUN SI, NANDUN THELLAMUREGE, YALI WANG, HUI LI
     UNIVERSITY OF ZURICH: ROBERTO PEVERATI, KIM BALDRIDGE
     N. COPERNICUS UNIVERSITY AND JACKSON STATE UNIVERSITY:
          MARIA BARYSZ
     UNIVERSITY OF COPENHAGEN: Jimmy Kromann, CASPER STEINMANN
     TOKYO INSTITUTE OF TECHNOLOGY: HIROYA NAKATA
     NAGOYA UNIVERSITY: YOSHIO NISHIMOTO, STEPHAN IRLE
     MOSCOW STATE UNIVERSITY: VLADIMIR MIRONOV
     A.N.NESMEYANOV INSTITUTE OF ORGANOELEMENT COMPOUNDS OF RUSSIAN ACADEMY OF SCIENCES:
          IGOR S. GERASIMOV

 EXECUTION OF GAMESS BEGUN Thu Apr 30 07:35:55 2026

            ECHO OF THE FIRST FEW INPUT CARDS -
 INPUT CARD>!                                                                               
 INPUT CARD>!   GAMESS Calculation input file                                               
 INPUT CARD>!                                                                               
 INPUT CARD>!                                                                               
 INPUT CARD> $CONTRL SCFTYP=RHF MAXIT=200 RUNTYP=OPTIMIZE                                   
 INPUT CARD>         COORD=UNIQUE MULT=1                                                    
 INPUT CARD>         ICHARG=0                                                               
 INPUT CARD>         DFTTYP=B3LYP                                                           
 INPUT CARD>         MOLPLT=.FALSE. PLTORB=.FALSE.  $END                                    
 INPUT CARD> $SYSTEM TIMLIM=2879 MWORDS=250  $END                                           
 INPUT CARD>                                                                                
 INPUT CARD> $STATPT OPTTOL=0.0005 NSTEP=999 $END                                           
 INPUT CARD> $STATPT IHREP=0  $END                                                          
 INPUT CARD>                                                                                
 INPUT CARD> $DFT    METHOD=GRID  NLEB=590  $END                                            
 INPUT CARD>                                                                                
 INPUT CARD> $BASIS  GBASIS=N31 NGAUSS=6                                                    
 INPUT CARD>         NDFUNC=1   NPFUNC=0  $END                                              
 INPUT CARD>                                                                                
 INPUT CARD> $PCM  SOLVNT=H2O  $END                                                         
 INPUT CARD>                                                                                
 INPUT CARD> $SCF    DIRSCF=.T. $END                                                        
 INPUT CARD> $GUESS  GUESS=HUCKEL  $END                                                     
 INPUT CARD>                                                                                
 INPUT CARD> $DATA                                                                          
 INPUT CARD>                                                                                
 INPUT CARD>  C1                                                                            
 INPUT CARD>O     8.0    -2.31528    -0.89036     0.18441                                   
 INPUT CARD>O     8.0     1.35091     1.23811    -0.14757                                   
 INPUT CARD>C     6.0    -1.22002    -0.09488     0.05912                                   
 INPUT CARD>C     6.0    -0.00801    -0.70272     0.06763                                   
 INPUT CARD>C     6.0     1.26253     0.01414    -0.04986                                   
 INPUT CARD>C     6.0    -1.45878     1.38573    -0.06875                                   
 INPUT CARD>C     6.0     2.51659    -0.85223    -0.03714                                   
 INPUT CARD>H     1.0     0.01202    -1.78492     0.16623                                   
 INPUT CARD>H     1.0    -1.06618     1.91772     0.80458                                   
 INPUT CARD>H     1.0    -2.53044     1.60711    -0.16745                                   
 INPUT CARD>H     1.0    -0.92241     1.79293    -0.92980                                   
 INPUT CARD>H     1.0     2.47684    -1.61191    -0.83152                                   
 INPUT CARD>H     1.0     3.39828    -0.22120    -0.17511                                   
 INPUT CARD>H     1.0     2.59944    -1.39141     0.91833                                   
 INPUT CARD>H     1.0    -3.11650    -0.34451     0.15541                                   
 INPUT CARD> $END                                                                           
 INPUT CARD>                                                                                
 INPUT CARD>                                                                                
 INPUT CARD>! Customizations after this line are persisted when using Do More Calculations  
  250000000 WORDS OF MEMORY AVAILABLE

     BASIS OPTIONS
     -------------
     GBASIS=N31          IGAUSS=       6      POLAR=POPN31  
     NDFUNC=       1     NFFUNC=       0     DIFFSP=       F
     NPFUNC=       0      DIFFS=       F     BASNAM=        


     RUN TITLE
     ---------
                                                                                 

 THE POINT GROUP OF THE MOLECULE IS C1      
 THE ORDER OF THE PRINCIPAL AXIS IS     0

 ATOM      ATOMIC                      COORDINATES (BOHR)
           CHARGE         X                   Y                   Z
 O           8.0    -4.3752447849       -1.6825364304        0.3484843694
 O           8.0     2.5528497341        2.3396886427       -0.2788668640
 C           6.0    -2.3055034995       -0.1792972017        0.1117206004
 C           6.0    -0.0151367052       -1.3279482461        0.1278021685
 C           6.0     2.3858357513        0.0267207255       -0.0942217377
 C           6.0    -2.7566944764        2.6186499930       -0.1299186617
 C           6.0     4.7556655234       -1.6104811785       -0.0701844232
 H           1.0     0.0227145064       -3.3730097100        0.3141291509
 H           1.0    -2.0147880536        3.6239653212        1.5204357352
 H           1.0    -4.7818382284        3.0369975321       -0.3164346166
 H           1.0    -1.7431021483        3.3881464152       -1.7570672234
 H           1.0     4.6805489154       -3.0460682169       -1.5713449533
 H           1.0     6.4218180296       -0.4180073885       -0.3309099177
 H           1.0     4.9122293215       -2.6293836366        1.7353920663
 H           1.0    -5.8893310407       -0.6510295000        0.2936823158

          INTERNUCLEAR DISTANCES (ANGS.)
          ------------------------------

                1 O          2 O          3 C          4 C          5 C     

   1 O       0.0000000    4.2522399    1.3594412 *  2.3178311 *  3.6978003  
   2 O       4.2522399    0.0000000    2.9033195 *  2.3790325 *  1.2310405 *
   3 C       1.3594412 *  2.9033195 *  0.0000000    1.3559167 *  2.4873312 *
   4 C       2.3178311 *  2.3790325 *  1.3559167 *  0.0000000    1.4635450 *
   5 C       3.6978003    1.2310405 *  2.4873312 *  1.4635450 *  0.0000000  
   6 C       2.4450497 *  2.8146691 *  1.5051787 *  2.5465578 *  3.0474816  
   7 C       4.8370969    2.3959395 *  3.8138038    2.5311924 *  1.5242786 *
   8 H       2.4933699 *  3.3211154    2.0941897 *  1.0868671 *  2.2016101 *
   9 H       3.1353110    2.6852902 *  2.1517286 *  2.9205350 *  3.1267515  
  10 H       2.5312953 *  3.8989016    2.1599316 *  3.4282985    4.1155804  
  11 H       3.2220484    2.4673250 *  2.1518274 *  2.8388841 *  2.9516692 *
  12 H       4.9514808    3.1397643    4.0940681    2.7945620 *  2.1747597 *
  13 H       5.7638353    2.5143723 *  4.6259610    3.4487093    2.1523245 *
  14 H       4.9944131    3.0998944    4.1240158    2.8278578 *  2.1680155 *
  15 H       0.9699210 *  4.7491299    1.9152606 *  3.1302923    4.3984849  

                6 C          7 C          8 H          9 H         10 H     

   1 O       2.4450497 *  4.8370969    2.4933699 *  3.1353110    2.5312953 *
   2 O       2.8146691 *  2.3959395 *  3.3211154    2.6852902 *  3.8989016  
   3 C       1.5051787 *  3.8138038    2.0941897 *  2.1517286 *  2.1599316 *
   4 C       2.5465578 *  2.5311924 *  1.0868671 *  2.9205350 *  3.4282985  
   5 C       3.0474816    1.5242786 *  2.2016101 *  3.1267515    4.1155804  
   6 C       0.0000000    4.5621301    3.5030686    1.0953782 *  1.0987292 *
   7 C       4.5621301    0.0000000    2.6803248 *  4.6062302    5.6158566  
   8 H       3.5030686    2.6803248 *  0.0000000    3.9089064    4.2522127  
   9 H       1.0953782 *  4.6062302    3.9089064    0.0000000    1.7847628 *
  10 H       1.0987292 *  5.6158566    4.2522127    1.7847628 *  0.0000000  
  11 H       1.0931202 *  4.4294959    3.8568707    1.7447969 *  1.7892644 *
  12 H       5.0056736    1.0998788 *  2.6647280 *  5.2619485    5.9896521  
  13 H       5.1170859    1.0929830 *  3.7454626    5.0464021    6.2042322  
  14 H       5.0155741    1.1002282 *  2.7230951 *  4.9396407    6.0403402  
  15 H       2.4066603 *  5.6592012    3.4442032    3.1213648    2.0631349 *

               11 H         12 H         13 H         14 H         15 H     

   1 O       3.2220484    4.9514808    5.7638353    4.9944131    0.9699210 *
   2 O       2.4673250 *  3.1397643    2.5143723 *  3.0998944    4.7491299  
   3 C       2.1518274 *  4.0940681    4.6259610    4.1240158    1.9152606 *
   4 C       2.8388841 *  2.7945620 *  3.4487093    2.8278578 *  3.1302923  
   5 C       2.9516692 *  2.1747597 *  2.1523245 *  2.1680155 *  4.3984849  
   6 C       1.0931202 *  5.0056736    5.1170859    5.0155741    2.4066603 *
   7 C       4.4294959    1.0998788 *  1.0929830 *  1.1002282 *  5.6592012  
   8 H       3.8568707    2.6647280 *  3.7454626    2.7230951 *  3.4442032  
   9 H       1.7447969 *  5.2619485    5.0464021    4.9396407    3.1213648  
  10 H       1.7892644 *  5.9896521    6.2042322    6.0403402    2.0631349 *
  11 H       0.0000000    4.8122235    4.8264520    5.0950008    3.2496710  
  12 H       4.8122235    0.0000000    1.7927632 *  1.7679440 *  5.8194318  
  13 H       4.8264520    1.7927632 *  0.0000000    1.7897340 *  6.5243243  
  14 H       5.0950008    1.7679440 *  1.7897340 *  0.0000000    5.8608887  
  15 H       3.2496710    5.8194318    6.5243243    5.8608887    0.0000000  

  * ... LESS THAN  3.000


     ATOMIC BASIS SET
     ----------------
 THE CONTRACTED PRIMITIVE FUNCTIONS HAVE BEEN UNNORMALIZED
 THE CONTRACTED BASIS FUNCTIONS ARE NOW NORMALIZED TO UNITY

  SHELL TYPE  PRIMITIVE        EXPONENT          CONTRACTION COEFFICIENT(S)

 O         

      1   S       1          5484.6716600    0.001831074430
      1   S       2           825.2349460    0.013950172200
      1   S       3           188.0469580    0.068445078098
      1   S       4            52.9645000    0.232714335992
      1   S       5            16.8975704    0.470192897984
      1   S       6             5.7996353    0.358520852987

      2   L       7            15.5396162   -0.110777549525    0.070874268231
      2   L       8             3.5999336   -0.148026262701    0.339752839147
      2   L       9             1.0137618    1.130767015354    0.727158577316

      3   L      10             0.2700058    1.000000000000    1.000000000000

      4   D      11             0.8000000    1.000000000000

 O         

      5   S      12          5484.6716600    0.001831074430
      5   S      13           825.2349460    0.013950172200
      5   S      14           188.0469580    0.068445078098
      5   S      15            52.9645000    0.232714335992
      5   S      16            16.8975704    0.470192897984
      5   S      17             5.7996353    0.358520852987

      6   L      18            15.5396162   -0.110777549525    0.070874268231
      6   L      19             3.5999336   -0.148026262701    0.339752839147
      6   L      20             1.0137618    1.130767015354    0.727158577316

      7   L      21             0.2700058    1.000000000000    1.000000000000

      8   D      22             0.8000000    1.000000000000

 C         

      9   S      23          3047.5248800    0.001834737132
      9   S      24           457.3695180    0.014037322813
      9   S      25           103.9486850    0.068842622264
      9   S      26            29.2101553    0.232184443216
      9   S      27             9.2866630    0.467941348435
      9   S      28             3.1639270    0.362311985337

     10   L      29             7.8682723   -0.119332419775    0.068999066591
     10   L      30             1.8812885   -0.160854151696    0.316423960957
     10   L      31             0.5442493    1.143456437840    0.744308290898

     11   L      32             0.1687145    1.000000000000    1.000000000000

     12   D      33             0.8000000    1.000000000000

 C         

     13   S      34          3047.5248800    0.001834737132
     13   S      35           457.3695180    0.014037322813
     13   S      36           103.9486850    0.068842622264
     13   S      37            29.2101553    0.232184443216
     13   S      38             9.2866630    0.467941348435
     13   S      39             3.1639270    0.362311985337

     14   L      40             7.8682723   -0.119332419775    0.068999066591
     14   L      41             1.8812885   -0.160854151696    0.316423960957
     14   L      42             0.5442493    1.143456437840    0.744308290898

     15   L      43             0.1687145    1.000000000000    1.000000000000

     16   D      44             0.8000000    1.000000000000

 C         

     17   S      45          3047.5248800    0.001834737132
     17   S      46           457.3695180    0.014037322813
     17   S      47           103.9486850    0.068842622264
     17   S      48            29.2101553    0.232184443216
     17   S      49             9.2866630    0.467941348435
     17   S      50             3.1639270    0.362311985337

     18   L      51             7.8682723   -0.119332419775    0.068999066591
     18   L      52             1.8812885   -0.160854151696    0.316423960957
     18   L      53             0.5442493    1.143456437840    0.744308290898

     19   L      54             0.1687145    1.000000000000    1.000000000000

     20   D      55             0.8000000    1.000000000000

 C         

     21   S      56          3047.5248800    0.001834737132
     21   S      57           457.3695180    0.014037322813
     21   S      58           103.9486850    0.068842622264
     21   S      59            29.2101553    0.232184443216
     21   S      60             9.2866630    0.467941348435
     21   S      61             3.1639270    0.362311985337

     22   L      62             7.8682723   -0.119332419775    0.068999066591
     22   L      63             1.8812885   -0.160854151696    0.316423960957
     22   L      64             0.5442493    1.143456437840    0.744308290898

     23   L      65             0.1687145    1.000000000000    1.000000000000

     24   D      66             0.8000000    1.000000000000

 C         

     25   S      67          3047.5248800    0.001834737132
     25   S      68           457.3695180    0.014037322813
     25   S      69           103.9486850    0.068842622264
     25   S      70            29.2101553    0.232184443216
     25   S      71             9.2866630    0.467941348435
     25   S      72             3.1639270    0.362311985337

     26   L      73             7.8682723   -0.119332419775    0.068999066591
     26   L      74             1.8812885   -0.160854151696    0.316423960957
     26   L      75             0.5442493    1.143456437840    0.744308290898

     27   L      76             0.1687145    1.000000000000    1.000000000000

     28   D      77             0.8000000    1.000000000000

 H         

     29   S      78            18.7311370    0.033494604338
     29   S      79             2.8253944    0.234726953484
     29   S      80             0.6401217    0.813757326146

     30   S      81             0.1612778    1.000000000000

 H         

     31   S      82            18.7311370    0.033494604338
     31   S      83             2.8253944    0.234726953484
     31   S      84             0.6401217    0.813757326146

     32   S      85             0.1612778    1.000000000000

 H         

     33   S      86            18.7311370    0.033494604338
     33   S      87             2.8253944    0.234726953484
     33   S      88             0.6401217    0.813757326146

     34   S      89             0.1612778    1.000000000000

 H         

     35   S      90            18.7311370    0.033494604338
     35   S      91             2.8253944    0.234726953484
     35   S      92             0.6401217    0.813757326146

     36   S      93             0.1612778    1.000000000000

 H         

     37   S      94            18.7311370    0.033494604338
     37   S      95             2.8253944    0.234726953484
     37   S      96             0.6401217    0.813757326146

     38   S      97             0.1612778    1.000000000000

 H         

     39   S      98            18.7311370    0.033494604338
     39   S      99             2.8253944    0.234726953484
     39   S     100             0.6401217    0.813757326146

     40   S     101             0.1612778    1.000000000000

 H         

     41   S     102            18.7311370    0.033494604338
     41   S     103             2.8253944    0.234726953484
     41   S     104             0.6401217    0.813757326146

     42   S     105             0.1612778    1.000000000000

 H         

     43   S     106            18.7311370    0.033494604338
     43   S     107             2.8253944    0.234726953484
     43   S     108             0.6401217    0.813757326146

     44   S     109             0.1612778    1.000000000000

 TOTAL NUMBER OF BASIS SET SHELLS             =   44
 NUMBER OF CARTESIAN GAUSSIAN BASIS FUNCTIONS =  121
 NUMBER OF ELECTRONS                          =   54
 CHARGE OF MOLECULE                           =    0
 SPIN MULTIPLICITY                            =    1
 NUMBER OF OCCUPIED ORBITALS (ALPHA)          =   27
 NUMBER OF OCCUPIED ORBITALS (BETA )          =   27
 TOTAL NUMBER OF ATOMS                        =   15
 THE NUCLEAR REPULSION ENERGY IS      293.2086248240

 SELECTED MURRAY-HANDY-LAMING RADIAL GRID

 LEGACY BECKE'S FUZZY CELL METHOD

 SELECTED ORIGINAL BECKE'S PARTITION FUNCTION

     LEBEDEV GRID-BASED DFT OPTIONS
     ------------------------------
     DFTTYP=B3LYP   
     NRAD  =      96     NLEB  =     590
     NRAD0 =      24     NLEB0 =     110
     SWOFF =    5.00E-03 (PURE SCF -> DFT)
     SWITCH=    3.00E-04 (COARSE -> TIGHT GRID)
     THRESH=    0.00E+00 GTHRE=    1.00E+00

 GRIMME'S EMPIRICAL DISPERSION CORRECTION= F

     $CONTRL OPTIONS
     ---------------
 SCFTYP=RHF          RUNTYP=OPTIMIZE     EXETYP=RUN     
 MPLEVL=       0     CITYP =NONE         CCTYP =NONE         VBTYP =NONE    
 DFTTYP=B3LYP        TDDFT =NONE    
 MULT  =       1     ICHARG=       0     NZVAR =       0     COORD =UNIQUE  
 PP    =NONE         RELWFN=NONE         LOCAL =NONE         NUMGRD=       F
 ISPHER=      -1     NOSYM =       0     MAXIT =     200     UNITS =ANGS    
 PLTORB=       F     MOLPLT=       F     AIMPAC=       F     FRIEND=        
 NPRINT=       7     IREST =       0     GEOM  =INPUT   
 NORMF =       0     NORMP =       0     ITOL  =      20     ICUT  =       9
 INTTYP=BEST         GRDTYP=BEST         QMTTOL= 1.0E-06

     $SYSTEM OPTIONS
     ---------------
  REPLICATED MEMORY=   250000000 WORDS (ON EVERY NODE).
 DISTRIBUTED MEMDDI=           0 MILLION WORDS IN AGGREGATE,
 MEMDDI DISTRIBUTED OVER   1 PROCESSORS IS           0 WORDS/PROCESSOR.
 TOTAL MEMORY REQUESTED ON EACH PROCESSOR=   250000000 WORDS.
 TIMLIM=        2879.00 MINUTES, OR       2.0 DAYS.
 PARALL= F  BALTYP=  DLB     KDIAG=    0  COREFL= F
 MXSEQ2=     300 MXSEQ3=     150  mem10=         0

 ** LOOKING UP INTERNALLY STORED DATA FOR SOLVENT=H2O      **
 OPTICAL AND PHYSICAL CONSTANTS:
 EPS= 78.390; EPSINF=  1.776; RSOLV=  1.385 A; VMOL=  18.070 ML/MOL;
 TCE= .25700E-03 1/K; STEN= 71.810 DYN/CM;  DSTEN=  0.6500; CMF=  1.2770


     -----------------------------------
     INPUT FOR PCM SOLVATION CALCULATION 
     -----------------------------------
     IEF   =     -10
     ICOMP =       0     IFIELD=       0     ICAV  =       0
     IDISP =       0     IREP  =       0     IDP   =       0

     SOLVNT=H2O          EPS   = 78.3900     EPSINF=  1.7760
     VMOL  = 18.0700     TCE   =  0.00025700 STEN  = 71.8100
     DSTEN =  0.6500     CMF   =  1.2770     RSOLV =  1.3850

     NESFP =       0
     OMEGA = 40.0000     RET   =100.0000     FRO   =  0.7000

     TABS  =298.0000     IPRINT=       0

     --------------------------------
     INPUT FOR ITERATIVE C-PCM METHOD 
     --------------------------------
     IPCMIT  =         1     MXDIIS  =        50
     MXITR1  =        50     MXITR2  =        50
     THRES   = 0.100E-09     IMUL    =         3
     RCUT(1) =   15.0000     RCUT(2) =   30.0000

     IDIRCT  =         1
     IMGABI  =         0     RABI    =    4.0000
     IMGASC  =         0     RASC    =   20.0000
     THRSLS  = 0.500E-03     DENSLS  =    0.0100
     IEFPOL  =         1     REFPOL  =    0.0000

     INPUT FOR ISOTROPIC DIELECTRICS
     -------------------------------
     EPS=    78.39

     INPUT FOR CAVITY DEFINITION 
     ---------------------------
   ATOM               COORDINATES                RADIUS       EPS
      1     -2.3153     -0.8904      0.1844      1.5000     78.3900
      2      1.3509      1.2381     -0.1476      1.5000     78.3900
      3     -1.2200     -0.0949      0.0591      1.7000     78.3900
      4     -0.0080     -0.7027      0.0676      1.7000     78.3900
      5      1.2625      0.0141     -0.0499      1.7000     78.3900
      6     -1.4588      1.3857     -0.0688      1.7000     78.3900
      7      2.5166     -0.8522     -0.0371      1.7000     78.3900
      8      0.0120     -1.7849      0.1662      1.2000     78.3900
      9     -1.0662      1.9177      0.8046      1.2000     78.3900
     10     -2.5304      1.6071     -0.1675      1.2000     78.3900
     11     -0.9224      1.7929     -0.9298      1.2000     78.3900
     12      2.4768     -1.6119     -0.8315      1.2000     78.3900
     13      3.3983     -0.2212     -0.1751      1.2000     78.3900
     14      2.5994     -1.3914      0.9183      1.2000     78.3900
     15     -3.1165     -0.3445      0.1554      1.2000     78.3900

     ----------------------------
     INPUT FOR TESSERA DEFINITION
     ----------------------------
     NTSALL  =        60     MTHALL  =         4
     MTHAUT  =         0     AUTFRE  =    2.0000
     NTSFRZ  =        60     KEEPSM  =         0
     AREAKP  =   10.0000     BONDRY  =    1.0000
     AREATL  =    0.0100

     SPHERE     INITS       METHOD
          1        60       FIXPVA
          2        60       FIXPVA
          3        60       FIXPVA
          4        60       FIXPVA
          5        60       FIXPVA
          6        60       FIXPVA
          7        60       FIXPVA
          8        60       FIXPVA
          9        60       FIXPVA
         10        60       FIXPVA
         11        60       FIXPVA
         12        60       FIXPVA
         13        60       FIXPVA
         14        60       FIXPVA
         15        60       FIXPVA

     ------------------------------
      FIXPVA TESSELLATION FOR PCM
         PEIFENG SU AND HUI LI
     UNIVERSITY OF NEBRASKA-LINCOLN
     ------------------------------


     -----------------------------
     INPUT FOR PCM GRADIENT METHOD
     -----------------------------
     IPCDER  =         3     IFAST   =         0
     FIXPVA GRADIENTS BY PEIFENG SU AND HUI LI
  

 PCM DIMENSIONS: MXSP=  2000, MXTS=       900, MEMORY=         47803

          ----------------
          PROPERTIES INPUT
          ----------------

     MOMENTS            FIELD           POTENTIAL          DENSITY
 IEMOM =       1   IEFLD =       0   IEPOT =       0   IEDEN =       0
 WHERE =COMASS     WHERE =NUCLEI     WHERE =NUCLEI     WHERE =NUCLEI  
 OUTPUT=BOTH       OUTPUT=BOTH       OUTPUT=BOTH       OUTPUT=BOTH    
 IEMINT=       0   IEFINT=       0                     IEDINT=       0
                                                       MORB  =       0
          EXTRAPOLATION IN EFFECT
          DIIS IN EFFECT
 ORBITAL PRINTING OPTION: NPREO=     1   121     2     1

     -------------------------------
     INTEGRAL TRANSFORMATION OPTIONS
     -------------------------------
     NWORD  =            0
     CUTOFF = 1.0E-09     MPTRAN =       0
     DIRTRF =       T     AOINTS =DUP     

          ----------------------
          INTEGRAL INPUT OPTIONS
          ----------------------
 NOPK  =       1 NORDER=       0 SCHWRZ=       T

     ------------------------------------------
     THE POINT GROUP IS C1 , NAXIS= 1, ORDER= 1
     ------------------------------------------

     DIMENSIONS OF THE SYMMETRY SUBSPACES ARE
 A   =  121

 ..... DONE SETTING UP THE RUN .....
 STEP CPU TIME =     0.05 TOTAL CPU TIME =          0.1 (      0.0 MIN)
 TOTAL WALL CLOCK TIME=          0.1 SECONDS, CPU UTILIZATION IS    71.43%


          -----------------------------
          STATIONARY POINT LOCATION RUN
          -----------------------------

 OBTAINING INITIAL HESSIAN, HESS=GUESS   
 CARTESIAN COORDINATE OPTIMIZATION USING BADGER'S RULE FORCE CONSTANT GUESS

          PARAMETERS CONTROLLING GEOMETRY SEARCH ARE
          METHOD =QA                  UPHESS =BFGS    
          NNEG   =         0          NFRZ   =         0
          NSTEP  =       999          IFOLOW =         1
          HESS   =GUESS               RESTAR =         F
          IHREP  =         0          HSSEND =         F
          NPRT   =         0          NPUN   =         0
          OPTTOL = 5.000E-04          RMIN   = 1.500E-03
          RMAX   = 1.000E-01          RLIM   = 7.000E-02
          DXMAX  = 3.000E-01          PURIFY =         F
          MOVIE  =         F          TRUPD  =         T
          TRMAX  = 5.000E-01          TRMIN  = 5.000E-02
          ITBMAT =         5          STPT   =         F
          STSTEP = 1.000E-02          PROJCT=          T

 BEGINNING GEOMETRY SEARCH POINT NSERCH=   0 ...

 COORDINATES OF ALL ATOMS ARE (ANGS)
   ATOM   CHARGE       X              Y              Z
 ------------------------------------------------------------
 O           8.0  -2.3152800000  -0.8903600000   0.1844100000
 O           8.0   1.3509100000   1.2381100000  -0.1475700000
 C           6.0  -1.2200200000  -0.0948800000   0.0591200000
 C           6.0  -0.0080100000  -0.7027200000   0.0676300000
 C           6.0   1.2625300000   0.0141400000  -0.0498600000
 C           6.0  -1.4587800000   1.3857300000  -0.0687500000
 C           6.0   2.5165900000  -0.8522300000  -0.0371400000
 H           1.0   0.0120200000  -1.7849200000   0.1662300000
 H           1.0  -1.0661800000   1.9177200000   0.8045800000
 H           1.0  -2.5304400000   1.6071100000  -0.1674500000
 H           1.0  -0.9224100000   1.7929300000  -0.9298000000
 H           1.0   2.4768400000  -1.6119100000  -0.8315200000
 H           1.0   3.3982800000  -0.2212000000  -0.1751100000
 H           1.0   2.5994400000  -1.3914100000   0.9183300000
 H           1.0  -3.1165000000  -0.3445100000   0.1554100000

          ********************
          1 ELECTRON INTEGRALS
          ********************
 ...... END OF ONE-ELECTRON INTEGRALS ......
 STEP CPU TIME =     0.01 TOTAL CPU TIME =          0.1 (      0.0 MIN)
 TOTAL WALL CLOCK TIME=          0.1 SECONDS, CPU UTILIZATION IS    66.67%

          -------------
          GUESS OPTIONS
          -------------
          GUESS =HUCKEL            NORB  =       0          NORDER=       0
          MIX   =       F          PRTMO =       F          PUNMO =       F
          TOLZ  = 1.0E-08          TOLE  = 1.0E-05
          SYMDEN=       F          PURIFY=       F

 INITIAL GUESS ORBITALS GENERATED BY HUCKEL   ROUTINE.
 HUCKEL GUESS REQUIRES    124942 WORDS.

 SYMMETRIES FOR INITIAL GUESS ORBITALS FOLLOW.   BOTH SET(S).
    27 ORBITALS ARE OCCUPIED (    7 CORE ORBITALS).
     8=A        9=A       10=A       11=A       12=A       13=A       14=A   
    15=A       16=A       17=A       18=A       19=A       20=A       21=A   
    22=A       23=A       24=A       25=A       26=A       27=A       28=A   
    29=A       30=A       31=A       32=A       33=A       34=A       35=A   
    36=A       37=A   
 ...... END OF INITIAL ORBITAL SELECTION ......
 STEP CPU TIME =     0.03 TOTAL CPU TIME =          0.1 (      0.0 MIN)
 TOTAL WALL CLOCK TIME=          0.1 SECONDS, CPU UTILIZATION IS    69.23%

                    ----------------------
                    AO INTEGRAL TECHNOLOGY
                    ----------------------
     S,P,L SHELL ROTATED AXIS INTEGRALS, REPROGRAMMED BY
        KAZUYA ISHIMURA (IMS) AND JOSE SIERRA (SYNSTAR).
     S,P,D,L SHELL ROTATED AXIS INTEGRALS PROGRAMMED BY
        KAZUYA ISHIMURA (INSTITUTE FOR MOLECULAR SCIENCE).
     S,P,D,F,G SHELL TO TOTAL QUARTET ANGULAR MOMENTUM SUM 5,
        ERIC PROGRAM BY GRAHAM FLETCHER (ELORET AND NASA ADVANCED
        SUPERCOMPUTING DIVISION, AMES RESEARCH CENTER).
     S,P,D,F,G,L SHELL GENERAL RYS QUADRATURE PROGRAMMED BY
        MICHEL DUPUIS (PACIFIC NORTHWEST NATIONAL LABORATORY).

          --------------------
          2 ELECTRON INTEGRALS
          --------------------

 DIRECT SCF METHOD SKIPS INTEGRAL STORAGE ON DISK.
 DIRECT TRANSFORMATION SKIPS AO INTEGRAL STORAGE ON DISK.
  ...... END OF TWO-ELECTRON INTEGRALS .....
 STEP CPU TIME =     0.00 TOTAL CPU TIME =          0.1 (      0.0 MIN)
 TOTAL WALL CLOCK TIME=          0.2 SECONDS, CPU UTILIZATION IS    60.00%

          -------------------------------------
          ---- POLARISABLE CONTINUUM MODEL ----
          ----      UNIVERSITY OF PISA     ----
          -------------------------------------

     ----------------------------
     INPUT FOR TESSERA DEFINITION
     ----------------------------
     NTSALL  =        60     MTHALL  =         4
     MTHAUT  =         0     AUTFRE  =    2.0000
     NTSFRZ  =        60     KEEPSM  =         0
     AREAKP  =   10.0000     BONDRY  =    1.0000
     AREATL  =    0.0100

     SPHERE     INITS       METHOD
          1        60       FIXPVA
          2        60       FIXPVA
          3        60       FIXPVA
          4        60       FIXPVA
          5        60       FIXPVA
          6        60       FIXPVA
          7        60       FIXPVA
          8        60       FIXPVA
          9        60       FIXPVA
         10        60       FIXPVA
         11        60       FIXPVA
         12        60       FIXPVA
         13        60       FIXPVA
         14        60       FIXPVA
         15        60       FIXPVA

     ------------------------------
      FIXPVA TESSELLATION FOR PCM
         PEIFENG SU AND HUI LI
     UNIVERSITY OF NEBRASKA-LINCOLN
     ------------------------------


     INPUT FOR CAVITY DEFINITION 
     ---------------------------
   ATOM               COORDINATES                RADIUS       EPS
      1     -2.3153     -0.8904      0.1844      1.5000     78.3900
      2      1.3509      1.2381     -0.1476      1.5000     78.3900
      3     -1.2200     -0.0949      0.0591      1.7000     78.3900
      4     -0.0080     -0.7027      0.0676      1.7000     78.3900
      5      1.2625      0.0141     -0.0499      1.7000     78.3900
      6     -1.4588      1.3857     -0.0688      1.7000     78.3900
      7      2.5166     -0.8522     -0.0371      1.7000     78.3900
      8      0.0120     -1.7849      0.1662      1.2000     78.3900
      9     -1.0662      1.9177      0.8046      1.2000     78.3900
     10     -2.5304      1.6071     -0.1675      1.2000     78.3900
     11     -0.9224      1.7929     -0.9298      1.2000     78.3900
     12      2.4768     -1.6119     -0.8315      1.2000     78.3900
     13      3.3983     -0.2212     -0.1751      1.2000     78.3900
     14      2.5994     -1.3914      0.9183      1.2000     78.3900
     15     -3.1165     -0.3445      0.1554      1.2000     78.3900

 MEMORY USED TO GENERATE CAVITY=    279742


 TOTAL NUMBER OF SPHERES=    15
 SPHERE           CENTER  (X,Y,Z) (A)               RADIUS (A)      AREA(A*A)
     1  -2.315280000  -0.890360000   0.184410000   1.800000000  12.191862046
     2   1.350910000   1.238110000  -0.147570000   1.800000000  14.299046665
     3  -1.220020000  -0.094880000   0.059120000   2.040000000   4.532515630
     4  -0.008010000  -0.702720000   0.067630000   2.040000000   6.490216462
     5   1.262530000   0.014140000  -0.049860000   2.040000000   4.778134825
     6  -1.458780000   1.385730000  -0.068750000   2.040000000   6.261305764
     7   2.516590000  -0.852230000  -0.037140000   2.040000000   7.978544837
     8   0.012020000  -1.784920000   0.166230000   1.440000000   5.536922899
     9  -1.066180000   1.917720000   0.804580000   1.440000000   6.124005809
    10  -2.530440000   1.607110000  -0.167450000   1.440000000   5.398720059
    11  -0.922410000   1.792930000  -0.929800000   1.440000000   5.137047749
    12   2.476840000  -1.611910000  -0.831520000   1.440000000   7.321760535
    13   3.398280000  -0.221200000  -0.175110000   1.440000000   6.874169957
    14   2.599440000  -1.391410000   0.918330000   1.440000000   6.164497602
    15  -3.116500000  -0.344510000   0.155410000   1.440000000   6.071750595

 TOTAL NUMBER OF TESSERAE=     267
 SURFACE AREA=   105.16050144(A**2)    CAVITY VOLUME=    101.43318336 (A**3)
 STEP CPU TIME =     0.01 TOTAL CPU TIME =          0.1 (      0.0 MIN)
 TOTAL WALL CLOCK TIME=          0.2 SECONDS, CPU UTILIZATION IS    62.50%

          THE SOLUTE IS ENCLOSED IN ONE CAVITY
 DONE CHECKING SEPARATION.
 STEP CPU TIME =     0.00 TOTAL CPU TIME =          0.1 (      0.0 MIN)
 TOTAL WALL CLOCK TIME=          0.2 SECONDS, CPU UTILIZATION IS    58.82%
chemcompute.org
{'UTCtimestamp': '2026-04-30T07:35:56.042386', 'cluster': 'jetstream2', 'clusterJobNumber': '1118337', 'status': 'RUNNING', 'nodeList': 'chemcompute-node-0'}
 
 ..... DONE GENERATING CAVITY .....
 STEP CPU TIME =     0.00 TOTAL CPU TIME =          0.1 (      0.0 MIN)
 TOTAL WALL CLOCK TIME=          0.2 SECONDS, CPU UTILIZATION IS    52.63%
 NUCLEI-NUCLEAR CHARGE POLARIZATION ADJUSTMENT TO VNN=        0.0000000000

          --------------------------
             R-B3LYP SCF CALCULATION
          --------------------------

     NUCLEAR ENERGY =       293.2086248240
     MAXIT =  200     NPUNCH=    2
     EXTRAP=T  DAMP=F  SHIFT=F  RSTRCT=F  DIIS=T  DEM=F  SOSCF=F
         DENSITY MATRIX CONVERGENCE THRESHOLD=  2.00E-05
     COARSE -> FINE DFT GRID SWITCH THRESHOLD=  3.00E-04 (SWITCH IN $DFT)
                   HF -> DFT SWITCH THRESHOLD=  5.00E-03 (SWOFF IN $DFT)
     MEMORY REQUIRED FOR RHF ITERS=   1209418 WORDS.

 DIRECT SCF CALCULATION, SCHWRZ=T   FDIFF=F,  DIRTHR=  0.00E+00 NITDIR=10
 SCHWARZ INEQUALITY OVERHEAD:      7271 INTEGRALS, T=        0.00

     EXCHANGE FUNCTIONAL   =B88&HFX   
     CORRELATION FUNCTIONAL=LYP88&VWN5
     DFT THRESHOLD         =.118E-08
     GRID CHANGE THRESHOLD =.300E-03
 FOR AN EULER-MACLAURIN QUADRATURE USING  96 RADIAL POINTS:
 SMALLEST GAUSSIAN PRIMITIVE EXPONENT=        0.1612777588 OF TYPE -S-
 ON ATOM NUMBER   8 HAS RADIAL NORMALIZATION=  1.000000
  LARGEST GAUSSIAN PRIMITIVE EXPONENT=     5484.6716600000 OF TYPE -S-
 ON ATOM NUMBER   1 HAS RADIAL NORMALIZATION=  1.000000
 DFT IS SWITCHED OFF, PERFORMING PURE SCF UNTIL SWOFF THRESHOLD IS REACHED.

                                                                                   NONZERO     BLOCKS
 ITER EX DEM     TOTAL ENERGY        E CHANGE  DENSITY CHANGE    DIIS ERROR      INTEGRALS    SKIPPED
   1  0  0     -342.6971260089  -342.6971260089   0.278709333   0.518796325       20540449     146682
          * * *   INITIATING DIIS PROCEDURE   * * *
   2  1  0     -343.6128209536    -0.9156949448   0.176220926   0.088523546       20548266     146995
   3  2  0     -343.6798155869    -0.0669946333   0.090144779   0.056646119       20548161     146623
   4  3  0     -343.7130358312    -0.0332202443   0.013503285   0.007407548       20549996     146506
   5  4  0     -343.7146067054    -0.0015708742   0.005529721   0.002643423       20550635     146433
   6  5  0     -343.7147974283    -0.0001907229   0.002412779   0.001078754       20550753     146403
 CONVERGED TO SWOFF, SO DFT CALCULATION IS NOW SWITCHED ON.
          * * *   INITIATING DIIS PROCEDURE   * * *
   7  6  0     -345.5493990938    -1.8346016654   0.109639757   0.103568365       20550858     146396
   8  7  0     -345.5815532862    -0.0321541924   0.061351648   0.027547739       20555487     145314
   9  8  0     -345.5787071018     0.0028461844   0.053260455   0.035849731       20554746     145180
  10  9  0     -345.5885415084    -0.0098344067   0.013800264   0.008147106       20555682     145135
  11 10  0     -345.5890753609    -0.0005338524   0.001398094   0.000898787       20555579     145172
  12 11  0     -345.5890835898    -0.0000082289   0.000621190   0.000477932       20555589     145167
  13 12  0     -345.5890856760    -0.0000020862   0.000130621   0.000070921       20555591     145166
  14 13  0     -345.5890857376    -0.0000000616   0.000041182   0.000028563       20555609     145165
  15 14  0     -345.5890857511    -0.0000000135   0.000010666   0.000004939       20555609     145165
  16 15  0     -345.5890857512    -0.0000000001   0.000005780   0.000003640       20555609     145165

          -----------------
          DENSITY CONVERGED
          -----------------
     TIME TO FORM FOCK OPERATORS=      48.0 SECONDS (       3.0 SEC/ITER)
     FOCK TIME ON FIRST ITERATION=       0.8, LAST ITERATION=       4.4
     TIME TO SOLVE SCF EQUATIONS=       0.2 SECONDS (       0.0 SEC/ITER)

 FINAL R-B3LYP ENERGY IS     -345.5890857512 AFTER  16 ITERATIONS
 DFT EXCHANGE + CORRELATION ENERGY =       -38.0397914368
 TOTAL ELECTRON NUMBER             =        53.9999962901
  
   PCM ASC=     -0.0076637688
   GCAVP  =      0.0000000000
   GDISP  =      0.0000000000
   GREP   =      0.0000000000

          ------------
          EIGENVECTORS
          ------------

                      1          2          3          4          5
                  -19.1923   -19.1185   -10.2716   -10.2637   -10.1888
                     A          A          A          A          A   
    1  O  1  S    0.992712  -0.000015   0.000032  -0.000022  -0.000043
    2  O  1  S    0.025767  -0.000068   0.000611  -0.000081  -0.000221
    3  O  1  X   -0.000113  -0.000006  -0.000042  -0.000026  -0.000050
    4  O  1  Y    0.000980   0.000006  -0.000033   0.000002  -0.000027
    5  O  1  Z   -0.000100   0.000001   0.000003   0.000001   0.000000
    6  O  1  S    0.013173   0.000549  -0.002806   0.000332   0.000843
    7  O  1  X    0.000946   0.000210  -0.001610   0.000106   0.000487
    8  O  1  Y    0.000348   0.000004  -0.001162   0.000076  -0.000151
    9  O  1  Z   -0.000073  -0.000018   0.000190  -0.000012   0.000007
   10  O  1 XX   -0.008127  -0.000015  -0.000325  -0.000064  -0.000015
   11  O  1 YY   -0.008209  -0.000057   0.000021  -0.000046  -0.000128
   12  O  1 ZZ   -0.008161  -0.000018   0.000581  -0.000083  -0.000202
   13  O  1 XY    0.000045   0.000010  -0.000575   0.000003   0.000012
   14  O  1 XZ   -0.000006  -0.000003   0.000102  -0.000001  -0.000012
   15  O  1 YZ    0.000004   0.000004   0.000091  -0.000005  -0.000003
   16  O  2  S   -0.000000   0.992672   0.000017  -0.000007  -0.000071
   17  O  2  S   -0.000010   0.025384   0.000055   0.000868  -0.000304
   18  O  2  X    0.000011  -0.000046  -0.000025   0.000003   0.000086
   19  O  2  Y   -0.000006  -0.001042   0.000022   0.000052   0.000031
   20  O  2  Z   -0.000001   0.000081   0.000001  -0.000005  -0.000019
   21  O  2  S    0.000128   0.015635  -0.000272  -0.005784   0.001494
   22  O  2  X   -0.000165  -0.000305   0.000210   0.000240  -0.000255
   23  O  2  Y    0.000009  -0.001974  -0.000110   0.002706  -0.000448
   24  O  2  Z    0.000010   0.000153  -0.000004  -0.000212   0.000089
   25  O  2 XX   -0.000002  -0.008333   0.000014   0.000587  -0.000149
   26  O  2 YY   -0.000024  -0.007840   0.000086  -0.000187  -0.000162
   27  O  2 ZZ    0.000009  -0.008381   0.000054   0.000754  -0.000292
   28  O  2 XY    0.000029   0.000052  -0.000012  -0.000059   0.000023
   29  O  2 XZ   -0.000002  -0.000005   0.000003   0.000014  -0.000020
   30  O  2 YZ    0.000002  -0.000050  -0.000002   0.000085  -0.000011
   31  C  3  S   -0.000011  -0.000018   0.992907  -0.000043  -0.001649
   32  C  3  S    0.000309  -0.000073   0.048610  -0.000091  -0.000252
   33  C  3  X   -0.000279  -0.000056  -0.000918   0.000051   0.000098
   34  C  3  Y   -0.000311   0.000000  -0.000476  -0.000009  -0.000248
   35  C  3  Z    0.000044   0.000002   0.000086  -0.000001   0.000022
   36  C  3  S   -0.001950  -0.000834  -0.013379   0.001606   0.003516
   37  C  3  X    0.001428  -0.000152  -0.004020   0.001138  -0.001297
   38  C  3  Y    0.002257   0.001342  -0.003142  -0.000991   0.004422
   39  C  3  Z   -0.000289  -0.000088   0.000473   0.000052  -0.000361
   40  C  3 XX   -0.000033  -0.000052  -0.008535   0.000096  -0.000218
   41  C  3 YY    0.000036  -0.000017  -0.008842   0.000013  -0.000498
   42  C  3 ZZ   -0.000021  -0.000029  -0.009403  -0.000022  -0.000142
   43  C  3 XY    0.000007   0.000038   0.000296  -0.000066   0.000107
   44  C  3 XZ    0.000000  -0.000005  -0.000074   0.000002  -0.000006
   45  C  3 YZ   -0.000007   0.000003  -0.000075  -0.000002   0.000040
   46  C  4  S   -0.000010  -0.000007   0.003367   0.001652  -0.000153
   47  C  4  S    0.000054   0.000010  -0.000483  -0.000076  -0.000196
   48  C  4  X   -0.000042   0.000058   0.000302  -0.000301   0.000011
   49  C  4  Y    0.000021  -0.000046  -0.000247  -0.000113  -0.000067
   50  C  4  Z   -0.000000   0.000003   0.000013   0.000024   0.000006
   51  C  4  S    0.001105  -0.000286   0.006100   0.003696   0.001398
   52  C  4  X   -0.000071  -0.001990  -0.001245   0.004069  -0.001713
   53  C  4  Y   -0.000309   0.000816   0.003131  -0.001086   0.000013
   54  C  4  Z    0.000038   0.000005  -0.000252  -0.000086   0.000073
   55  C  4 XX   -0.000101   0.000049  -0.000356  -0.000468   0.000159
   56  C  4 YY   -0.000057  -0.000080  -0.000220  -0.000311   0.000004
   57  C  4 ZZ   -0.000011  -0.000019  -0.000242  -0.000125  -0.000079
   58  C  4 XY    0.000013  -0.000024  -0.000072  -0.000165  -0.000008
   59  C  4 XZ    0.000003   0.000002   0.000012   0.000030  -0.000011
   60  C  4 YZ    0.000006   0.000006  -0.000000   0.000024  -0.000006
   61  C  5  S    0.000019  -0.000030   0.000029   0.992969   0.000009
   62  C  5  S    0.000069   0.000371  -0.000033   0.048797  -0.000024
   63  C  5  X   -0.000072  -0.000020   0.000153   0.000070   0.000056
   64  C  5  Y    0.000013   0.000052  -0.000056   0.000767  -0.000111
   65  C  5  Z    0.000001  -0.000002  -0.000001  -0.000057  -0.000001
   66  C  5  S   -0.000216  -0.002188  -0.001939  -0.011027  -0.000229
   67  C  5  X    0.000804  -0.000127  -0.000223  -0.000008  -0.000464
   68  C  5  Y   -0.000149  -0.004874   0.000673   0.006712  -0.000649
   69  C  5  Z   -0.000023   0.000393  -0.000044  -0.000530   0.000076
   70  C  5 XX    0.000024  -0.000074   0.000021  -0.009159  -0.000084
   71  C  5 YY    0.000035  -0.000848   0.000003  -0.008091  -0.000075
   72  C  5 ZZ    0.000052  -0.000095  -0.000031  -0.009383  -0.000028
   73  C  5 XY    0.000009  -0.000041   0.000020   0.000153   0.000056
   74  C  5 XZ    0.000001   0.000002  -0.000004  -0.000021  -0.000003
   75  C  5 YZ    0.000001   0.000069  -0.000006  -0.000123  -0.000004
   76  C  6  S    0.000020   0.000030   0.001398  -0.000053   0.992906
   77  C  6  S    0.000159   0.000121  -0.000188  -0.000093   0.050350
   78  C  6  X    0.000005   0.000121   0.000043  -0.000047   0.000059
   79  C  6  Y    0.000051   0.000011   0.000262   0.000017  -0.000206
   80  C  6  Z   -0.000005   0.000015  -0.000013  -0.000001   0.000048
   81  C  6  S   -0.001221  -0.000917   0.004478   0.000844  -0.018767
   82  C  6  X   -0.000451  -0.000664   0.001146   0.000026  -0.000551
   83  C  6  Y    0.000261   0.000451  -0.002291  -0.000343   0.001782
   84  C  6  Z    0.000010  -0.000152   0.000091   0.000038  -0.000236
   85  C  6 XX    0.000001   0.000073  -0.000159  -0.000067  -0.009131
   86  C  6 YY   -0.000037   0.000027  -0.000491  -0.000020  -0.009255
   87  C  6 ZZ    0.000016   0.000031  -0.000069  -0.000052  -0.009163
   88  C  6 XY    0.000034   0.000004  -0.000126   0.000021   0.000000
   89  C  6 XZ    0.000006   0.000005   0.000000  -0.000005   0.000001
   90  C  6 YZ    0.000007  -0.000003   0.000048  -0.000005   0.000007
   91  C  7  S    0.000012   0.000004  -0.000043   0.001166  -0.000085
   92  C  7  S    0.000060   0.000086  -0.000178  -0.000098  -0.000114
   93  C  7  X    0.000011   0.000041  -0.000023   0.000072   0.000019
   94  C  7  Y   -0.000010  -0.000011   0.000039  -0.000200   0.000012
   95  C  7  Z    0.000001   0.000001  -0.000003   0.000023  -0.000001
   96  C  7  S   -0.000588  -0.001055   0.001304   0.004482   0.000439
   97  C  7  X    0.000149   0.000813  -0.000611  -0.002187  -0.000214
   98  C  7  Y   -0.000197   0.000297   0.000092   0.000786   0.000152
   99  C  7  Z    0.000006  -0.000066   0.000028  -0.000026  -0.000006
  100  C  7 XX    0.000012  -0.000070   0.000017  -0.000221  -0.000004
  101  C  7 YY   -0.000004   0.000013  -0.000053  -0.000375  -0.000002
  102  C  7 ZZ    0.000024  -0.000019  -0.000035  -0.000030  -0.000042
  103  C  7 XY    0.000014   0.000008  -0.000031   0.000211  -0.000034
  104  C  7 XZ    0.000000   0.000000   0.000000  -0.000005   0.000001
  105  C  7 YZ    0.000003  -0.000007   0.000004   0.000029  -0.000002
  106  H  8  S    0.000028   0.000110   0.000064  -0.000231  -0.000042
  107  H  8  S   -0.000409   0.000383   0.000780  -0.001012   0.000085
  108  H  9  S    0.000035   0.000140  -0.000215  -0.000036   0.000060
  109  H  9  S    0.000125   0.000049   0.000265  -0.000073   0.002784
  110  H 10  S   -0.000015  -0.000038  -0.000101  -0.000022  -0.000032
  111  H 10  S    0.000110  -0.000322   0.000327   0.000013   0.002549
  112  H 11  S    0.000052   0.000153  -0.000218  -0.000046   0.000068
  113  H 11  S    0.000148  -0.000132   0.000101  -0.000061   0.002709
  114  H 12  S    0.000011   0.000027  -0.000065  -0.000177  -0.000027
  115  H 12  S    0.000016   0.000121  -0.000088   0.000122  -0.000011
  116  H 13  S    0.000026   0.000032  -0.000018  -0.000096  -0.000023
  117  H 13  S    0.000034  -0.000284   0.000045   0.000052   0.000050
  118  H 14  S    0.000012   0.000020  -0.000067  -0.000176  -0.000027
  119  H 14  S    0.000019   0.000117  -0.000084   0.000225  -0.000008
  120  H 15  S    0.000427  -0.000001   0.000141   0.000015  -0.000006
  121  H 15  S   -0.001096   0.000033  -0.000211   0.000063   0.000007

                      6          7          8          9         10
                  -10.1750   -10.1701    -1.0731    -1.0178    -0.7892
                     A          A          A          A          A   
    1  O  1  S   -0.000021   0.000014  -0.202272   0.009450   0.054032
    2  O  1  S   -0.000090  -0.000010   0.445415  -0.022069  -0.127527
    3  O  1  X   -0.000021   0.000022   0.015106   0.001554   0.112263
    4  O  1  Y   -0.000013  -0.000009   0.116445  -0.005193  -0.006089
    5  O  1  Z    0.000002  -0.000001  -0.012959   0.000492  -0.003469
    6  O  1  S    0.000378  -0.000183   0.450010  -0.016773  -0.135516
    7  O  1  X    0.000047  -0.000107   0.012674   0.003003   0.060743
    8  O  1  Y    0.000189   0.000108   0.057377  -0.002301  -0.001402
    9  O  1  Z   -0.000019  -0.000003  -0.006530   0.000158  -0.002293
   10  O  1 XX   -0.000065   0.000110   0.012871  -0.000532  -0.001131
   11  O  1 YY   -0.000022   0.000078   0.006396  -0.000875  -0.000582
   12  O  1 ZZ   -0.000089   0.000003  -0.011385   0.000117  -0.000203
   13  O  1 XY    0.000012   0.000005  -0.003501   0.000612   0.012512
   14  O  1 XZ   -0.000002  -0.000005  -0.000678  -0.000032  -0.001314
   15  O  1 YZ   -0.000008  -0.000009  -0.002078   0.000103  -0.000434
   16  O  2  S   -0.000007   0.000048  -0.005638  -0.193566   0.045236
   17  O  2  S   -0.000064   0.000185   0.010138   0.414142  -0.100525
   18  O  2  X    0.000013  -0.000018  -0.001048  -0.012037  -0.016798
   19  O  2  Y    0.000021  -0.000038  -0.004642  -0.154143   0.011357
   20  O  2  Z   -0.000005   0.000001   0.000387   0.012235  -0.000153
   21  O  2  S   -0.000173  -0.001668   0.021731   0.425442  -0.113784
   22  O  2  X   -0.000469   0.000476  -0.001924  -0.005645  -0.007975
   23  O  2  Y   -0.000003   0.000399  -0.003705  -0.059358   0.001603
   24  O  2  Z    0.000034  -0.000043   0.000394   0.004615   0.000004
   25  O  2 XX    0.000027   0.000192  -0.000933  -0.012185   0.002469
   26  O  2 YY    0.000050   0.000199  -0.000333   0.008471   0.001318
   27  O  2 ZZ   -0.000111   0.000045  -0.000827  -0.008624   0.000521
   28  O  2 XY    0.000063  -0.000063   0.000326   0.002193   0.001660
   29  O  2 XZ   -0.000010  -0.000005  -0.000019   0.000125  -0.000198
   30  O  2 YZ   -0.000020  -0.000011  -0.000058  -0.001626  -0.000143
   31  C  3  S   -0.000021  -0.003872  -0.082208  -0.004356  -0.125696
   32  C  3  S   -0.000151  -0.000778   0.158377   0.008961   0.256731
   33  C  3  X    0.000002  -0.000342  -0.099605   0.015451   0.109293
   34  C  3  Y    0.000023   0.000191  -0.066095   0.003968   0.023134
   35  C  3  Z   -0.000002  -0.000004   0.010761  -0.000969  -0.006471
   36  C  3  S    0.001594   0.007280   0.024479  -0.022697   0.176163
   37  C  3  X    0.001441   0.003174   0.007080  -0.009730   0.026334
   38  C  3  Y   -0.001012  -0.000564   0.041578   0.010808   0.026332
   39  C  3  Z    0.000027  -0.000083  -0.004689  -0.000850  -0.003203
   40  C  3 XX    0.000014  -0.000335   0.010540   0.000171  -0.005192
   41  C  3 YY   -0.000043  -0.000335  -0.002427  -0.000277   0.002059
   42  C  3 ZZ   -0.000072  -0.000147  -0.013098  -0.000313  -0.012580
   43  C  3 XY   -0.000047   0.000111   0.016186  -0.000791  -0.011137
   44  C  3 XZ    0.000001  -0.000001  -0.002746   0.000067   0.000702
   45  C  3 YZ   -0.000002   0.000015  -0.001932   0.000038  -0.001122
   46  C  4  S   -0.000409   0.992744  -0.016772  -0.020893  -0.131326
   47  C  4  S   -0.000128   0.050059   0.030273   0.037133   0.252345
   48  C  4  X   -0.000112  -0.000170  -0.024491   0.020987  -0.046843
   49  C  4  Y    0.000043   0.000312   0.005116   0.021631   0.050035
   50  C  4  Z   -0.000000  -0.000026   0.000521  -0.002743  -0.002930
   51  C  4  S   -0.000671  -0.017716   0.031522   0.020347   0.176599
   52  C  4  X    0.002128   0.000687  -0.030370  -0.027060   0.001132
   53  C  4  Y   -0.000041  -0.003635  -0.006003   0.023764  -0.015983
   54  C  4  Z   -0.000068   0.000314   0.002057  -0.000771   0.001154
   55  C  4 XX    0.000001  -0.009169   0.005618   0.003559   0.003466
   56  C  4 YY    0.000076  -0.009437  -0.001142   0.002641   0.000807
   57  C  4 ZZ   -0.000057  -0.009623  -0.002018  -0.002502  -0.012933
   58  C  4 XY    0.000087  -0.000117  -0.001162   0.004872  -0.004794
   59  C  4 XZ   -0.000011  -0.000011  -0.000261  -0.000694  -0.000319
   60  C  4 YZ   -0.000016  -0.000015  -0.000028  -0.000724  -0.001317
   61  C  5  S   -0.001376  -0.001931  -0.004841  -0.118886  -0.040094
   62  C  5  S   -0.000248  -0.000387   0.009324   0.228792   0.081152
   63  C  5  X   -0.000202   0.000305  -0.004198   0.010051  -0.063593
   64  C  5  Y    0.000047   0.000137   0.003884   0.172191  -0.099205
   65  C  5  Z    0.000007  -0.000026  -0.000120  -0.013582   0.010645
   66  C  5  S    0.003763   0.005512   0.015990   0.086039   0.059929
   67  C  5  X    0.003382  -0.003564   0.006498   0.003145  -0.013564
   68  C  5  Y   -0.000871   0.000394  -0.017641  -0.056264  -0.006963
   69  C  5  Z   -0.000096   0.000126   0.001101   0.004262   0.001148
   70  C  5 XX   -0.000323  -0.000346  -0.000093  -0.018219   0.010912
   71  C  5 YY   -0.000224  -0.000295   0.000238   0.020925  -0.008282
   72  C  5 ZZ   -0.000124  -0.000141  -0.000572  -0.019654  -0.002779
   73  C  5 XY    0.000138  -0.000188   0.000161   0.003013   0.001930
   74  C  5 XZ    0.000002   0.000027  -0.000039  -0.000295  -0.000869
   75  C  5 YZ    0.000002   0.000026  -0.000078  -0.003755   0.000370
   76  C  6  S    0.000042   0.000127  -0.014835  -0.003520  -0.091999
   77  C  6  S   -0.000100  -0.000043   0.027563   0.006429   0.175745
   78  C  6  X   -0.000035  -0.000060  -0.003894   0.004320   0.020811
   79  C  6  Y    0.000003   0.000071  -0.021103  -0.001257  -0.048663
   80  C  6  Z   -0.000002  -0.000010   0.002043  -0.000115   0.004256
   81  C  6  S    0.000783  -0.000751  -0.005812  -0.000823   0.140059
   82  C  6  X   -0.000031  -0.000227  -0.008604   0.004674  -0.001368
   83  C  6  Y   -0.000354   0.000170   0.000775  -0.000101   0.001445
   84  C  6  Z    0.000060   0.000030   0.001317   0.000118  -0.000699
   85  C  6 XX   -0.000027   0.000029  -0.000425   0.000970  -0.001253
   86  C  6 YY   -0.000002   0.000059   0.005316   0.000059   0.004339
   87  C  6 ZZ   -0.000051  -0.000038  -0.001156  -0.000092  -0.001272
   88  C  6 XY    0.000032   0.000025   0.001109  -0.000441  -0.002333
   89  C  6 XZ   -0.000002  -0.000005   0.000004  -0.000012   0.000091
   90  C  6 YZ   -0.000005  -0.000011  -0.000706   0.000031  -0.000544
   91  C  7  S    0.992900   0.000388  -0.000564  -0.018757  -0.030600
   92  C  7  S    0.050356  -0.000094   0.001773   0.034404   0.057955
   93  C  7  X   -0.000118   0.000003  -0.000007  -0.017145  -0.021034
   94  C  7  Y   -0.000102  -0.000010   0.000414   0.020291  -0.001202
   95  C  7  Z    0.000031   0.000002  -0.000041  -0.000812   0.001162
   96  C  7  S   -0.017946   0.000808  -0.011645  -0.000229   0.052422
   97  C  7  X    0.001362  -0.000297   0.003723   0.010386  -0.005022
   98  C  7  Y   -0.000730   0.000503  -0.003211   0.006782  -0.002551
   99  C  7  Z   -0.000051  -0.000026   0.000195  -0.000645   0.000555
  100  C  7 XX   -0.009233   0.000047  -0.000194   0.002416   0.001797
  101  C  7 YY   -0.009239   0.000052   0.000123   0.003701  -0.001272
  102  C  7 ZZ   -0.009155  -0.000037  -0.000022  -0.001276  -0.000158
  103  C  7 XY    0.000101  -0.000012   0.000062  -0.004608  -0.000414
  104  C  7 XZ   -0.000006  -0.000004   0.000007   0.000134  -0.000053
  105  C  7 YZ    0.000005  -0.000008  -0.000015  -0.000310   0.000164
  106  H  8  S   -0.000074  -0.000399   0.005621   0.006231   0.062277
  107  H  8  S    0.000168   0.001208  -0.001500   0.009161  -0.001579
  108  H  9  S   -0.000026   0.000007   0.004508   0.002420   0.051215
  109  H  9  S   -0.000030   0.000041   0.001072   0.002257   0.005040
  110  H 10  S   -0.000027   0.000026   0.007443   0.000892   0.044428
  111  H 10  S    0.000010   0.000100   0.004488   0.001507  -0.000583
  112  H 11  S   -0.000023   0.000003   0.004535   0.003622   0.051445
  113  H 11  S    0.000008   0.000101   0.002404   0.002858   0.004309
  114  H 12  S    0.000007  -0.000025   0.000375   0.006148   0.018869
  115  H 12  S    0.002708   0.000128   0.000204   0.001369   0.002775
  116  H 13  S   -0.000035  -0.000039   0.000523   0.008667   0.011992
  117  H 13  S    0.002571   0.000035   0.001422  -0.000476   0.000280
  118  H 14  S    0.000010  -0.000023   0.000387   0.006207   0.018595
  119  H 14  S    0.002747   0.000112   0.000050   0.000819   0.002581
  120  H 15  S   -0.000017  -0.000016   0.119269  -0.006480  -0.073753
  121  H 15  S    0.000075   0.000171  -0.006876  -0.000228  -0.007655

                     11         12         13         14         15
                   -0.7391    -0.7003    -0.6151    -0.5183    -0.5074
                     A          A          A          A          A   
    1  O  1  S   -0.021538   0.002469   0.018660  -0.000489  -0.040453
    2  O  1  S    0.051187  -0.003830  -0.043935   0.003374   0.093343
    3  O  1  X   -0.025205  -0.102598   0.345500   0.300264   0.107225
    4  O  1  Y   -0.020548   0.041293   0.008504   0.062038  -0.200145
    5  O  1  Z    0.002812  -0.000013  -0.013649  -0.016220   0.016626
    6  O  1  S    0.056255  -0.014551  -0.056313   0.005492   0.139063
    7  O  1  X   -0.017328  -0.051079   0.176948   0.159242   0.052113
    8  O  1  Y   -0.011241   0.022842   0.000584   0.035175  -0.127983
    9  O  1  Z    0.001768  -0.000262  -0.006755  -0.008894   0.011209
   10  O  1 XX    0.002427  -0.003574  -0.003606  -0.011250   0.003072
   11  O  1 YY   -0.002720   0.006898  -0.001500   0.004835  -0.017511
   12  O  1 ZZ    0.000515  -0.000088   0.000564   0.000578   0.003017
   13  O  1 XY   -0.004180  -0.006230   0.023880   0.017407   0.001668
   14  O  1 XZ    0.000351   0.000847  -0.002379  -0.001298  -0.000201
   15  O  1 YZ    0.000538  -0.000587  -0.000650  -0.001094   0.002447
   16  O  2  S    0.049051   0.010221  -0.032486   0.048526  -0.033420
   17  O  2  S   -0.110363  -0.024228   0.074095  -0.110688   0.071722
   18  O  2  X    0.019731   0.025333   0.052645   0.017174   0.017707
   19  O  2  Y   -0.012846   0.001795   0.030032  -0.138983   0.102454
   20  O  2  Z    0.000497  -0.001482  -0.004651   0.011141  -0.009148
   21  O  2  S   -0.120419  -0.023135   0.091576  -0.143430   0.122482
   22  O  2  X    0.010044   0.009110   0.027963   0.005440   0.011703
   23  O  2  Y   -0.014825  -0.000174   0.022141  -0.085939   0.056910
   24  O  2  Z    0.000980  -0.000676  -0.002896   0.007050  -0.005190
   25  O  2 XX    0.000271  -0.000003  -0.000554  -0.002159  -0.001102
   26  O  2 YY    0.004869   0.000178  -0.004954   0.013311  -0.009782
   27  O  2 ZZ   -0.000018  -0.000330   0.000782  -0.001809   0.000039
   28  O  2 XY   -0.001760  -0.003399  -0.005477  -0.000210  -0.002258
   29  O  2 XZ    0.000030   0.000299   0.000477  -0.000033   0.000311
   30  O  2 YZ   -0.000362   0.000115   0.000762  -0.001384   0.000942
   31  C  3  S    0.042212   0.030801  -0.082945   0.017459   0.081405
   32  C  3  S   -0.086942  -0.065243   0.181540  -0.035046  -0.183719
   33  C  3  X    0.023373  -0.101068  -0.092744  -0.279863   0.004488
   34  C  3  Y   -0.087875   0.168994  -0.114757  -0.036596  -0.196576
   35  C  3  Z    0.007140  -0.011875   0.015578   0.016897   0.019747
   36  C  3  S   -0.049073  -0.050444   0.138911  -0.058654  -0.142599
   37  C  3  X    0.007408  -0.025514  -0.013611  -0.066398   0.014063
   38  C  3  Y   -0.025494   0.012970   0.000008   0.007634  -0.073312
   39  C  3  Z    0.002129  -0.000150   0.000975   0.002939   0.007078
   40  C  3 XX    0.006483  -0.003972  -0.009094   0.001079  -0.001983
   41  C  3 YY   -0.005707   0.008702   0.001831   0.005663   0.014342
   42  C  3 ZZ    0.004022   0.003567  -0.009680  -0.002294   0.005196
   43  C  3 XY    0.002422  -0.000443   0.010943   0.018443   0.004410
   44  C  3 XZ   -0.000346   0.000406  -0.001183  -0.002037  -0.000174
   45  C  3 YZ    0.000943  -0.000483  -0.001823  -0.001708  -0.001213
   46  C  4  S   -0.048324   0.095066   0.065622   0.041583  -0.036426
   47  C  4  S    0.094105  -0.185826  -0.128931  -0.083414   0.074403
   48  C  4  X    0.070509   0.064857  -0.178569   0.202190   0.003115
   49  C  4  Y   -0.019265  -0.006626  -0.025802  -0.029768  -0.205009
   50  C  4  Z   -0.001272  -0.002066   0.009818  -0.004543   0.019272
   51  C  4  S    0.057830  -0.145941  -0.122537  -0.076549   0.054537
   52  C  4  X    0.017225   0.015396  -0.047550   0.026650   0.002059
   53  C  4  Y   -0.011002   0.018476  -0.010244   0.005908  -0.086407
   54  C  4  Z    0.000204  -0.002487   0.002862  -0.001179   0.008095
   55  C  4 XX    0.003181  -0.000185   0.004316   0.008387  -0.005278
   56  C  4 YY   -0.000906  -0.000779  -0.003692  -0.002629   0.006765
   57  C  4 ZZ   -0.004521   0.008715   0.005430   0.002962  -0.002792
   58  C  4 XY    0.004293   0.000561  -0.008130   0.010576   0.003361
   59  C  4 XZ   -0.000794   0.000341   0.000802  -0.001276  -0.000251
   60  C  4 YZ   -0.000580   0.000988   0.001340   0.000197  -0.001125
   61  C  5  S   -0.077249  -0.009418   0.068892  -0.102637   0.035217
   62  C  5  S    0.158113   0.019249  -0.147623   0.228891  -0.081068
   63  C  5  X    0.044672   0.114871   0.151213   0.025868   0.018046
   64  C  5  Y   -0.145609  -0.034039   0.087240  -0.068764  -0.035734
   65  C  5  Z    0.009827  -0.002554  -0.013864   0.005521   0.002435
   66  C  5  S    0.109556   0.004589  -0.112584   0.202134  -0.051804
   67  C  5  X    0.001284   0.023751   0.032500   0.017527  -0.006314
   68  C  5  Y   -0.032973  -0.004674   0.024803  -0.073134   0.002667
   69  C  5  Z    0.002762  -0.000617  -0.003328   0.005710   0.000256
   70  C  5 XX    0.008274   0.000404   0.000077  -0.009050  -0.001010
   71  C  5 YY   -0.008749  -0.000906   0.007737  -0.007933   0.007807
   72  C  5 ZZ   -0.006074  -0.000349   0.005240  -0.007131   0.002804
   73  C  5 XY   -0.004471  -0.009025  -0.006633   0.002399   0.003794
   74  C  5 XZ   -0.000386   0.000717   0.000834  -0.000134  -0.000183
   75  C  5 YZ    0.000377   0.000446   0.000127  -0.000031  -0.000691
   76  C  6  S    0.101542  -0.128137   0.028523  -0.012772  -0.047608
   77  C  6  S   -0.194957   0.247464  -0.053980   0.026795   0.095338
   78  C  6  X   -0.003101  -0.018358  -0.002560  -0.088321  -0.023504
   79  C  6  Y    0.020458   0.009684  -0.049190   0.014958   0.261459
   80  C  6  Z   -0.002294   0.000673   0.005128   0.004484  -0.020406
   81  C  6  S   -0.175979   0.252116  -0.074821   0.031332   0.120245
   82  C  6  X    0.001206  -0.012098  -0.003191  -0.050812  -0.007448
   83  C  6  Y    0.001737  -0.003047  -0.003989   0.009387   0.101269
   84  C  6  Z   -0.000671   0.001297   0.000041   0.000673  -0.008235
   85  C  6 XX   -0.000495   0.002065  -0.002890   0.002313   0.008158
   86  C  6 YY   -0.000164  -0.004289   0.006660  -0.001082  -0.015376
   87  C  6 ZZ    0.000444   0.000578  -0.001488  -0.001324   0.010121
   88  C  6 XY   -0.000579   0.002976  -0.000375   0.004085   0.005047
   89  C  6 XZ    0.000045  -0.000073   0.000221   0.000700  -0.000514
   90  C  6 YZ    0.000047   0.000504  -0.000896  -0.000009   0.002659
   91  C  7  S   -0.138721  -0.108036  -0.065326   0.044325   0.000402
   92  C  7  S    0.264045   0.207296   0.129469  -0.087756  -0.001897
   93  C  7  X   -0.039896   0.002306   0.072679  -0.160838   0.002765
   94  C  7  Y    0.009517   0.003819  -0.010893   0.091355  -0.031753
   95  C  7  Z    0.001813   0.000238  -0.001916   0.000069   0.002281
   96  C  7  S    0.245051   0.202760   0.134367  -0.122133   0.002362
   97  C  7  X   -0.008652  -0.000035   0.026358  -0.051608  -0.009041
   98  C  7  Y   -0.002204  -0.002339  -0.000596   0.030564  -0.012959
   99  C  7  Z    0.000914   0.000451  -0.000996  -0.000225   0.001777
  100  C  7 XX    0.001595  -0.001673  -0.006006   0.007496  -0.001375
  101  C  7 YY   -0.000829   0.000421   0.002717  -0.001817  -0.000311
  102  C  7 ZZ   -0.000137   0.000907   0.002515  -0.006287   0.001011
  103  C  7 XY   -0.000289   0.001734   0.005484  -0.010961   0.001731
  104  C  7 XZ   -0.000090  -0.000047  -0.000090   0.000167   0.000057
  105  C  7 YZ    0.000130  -0.000046  -0.000409   0.000135   0.000170
  106  H  8  S    0.039900  -0.060834  -0.040813  -0.020831   0.143375
  107  H  8  S    0.011642  -0.007724  -0.014418  -0.004419   0.092007
  108  H  9  S   -0.062578   0.084993  -0.030360   0.000246   0.097799
  109  H  9  S   -0.012858   0.020659  -0.011020  -0.003587   0.057231
  110  H 10  S   -0.062804   0.095534  -0.029239   0.053115   0.083353
  111  H 10  S   -0.012176   0.025505  -0.019134   0.020116   0.040589
  112  H 11  S   -0.062659   0.082810  -0.031711  -0.011220   0.097583
  113  H 11  S   -0.013409   0.020361  -0.011807  -0.011781   0.057288
  114  H 12  S    0.085879   0.070515   0.052009  -0.068925   0.011503
  115  H 12  S    0.016714   0.016183   0.019174  -0.037747   0.009369
  116  H 13  S    0.077809   0.073513   0.072470  -0.079255  -0.008162
  117  H 13  S    0.014391   0.018947   0.028303  -0.046255   0.003330
  118  H 14  S    0.085985   0.071141   0.053312  -0.068717   0.009908
  119  H 14  S    0.016727   0.016584   0.019825  -0.037623   0.007982
  120  H 15  S    0.016235   0.052377  -0.160102  -0.122792  -0.077371
  121  H 15  S   -0.000190   0.017822  -0.061844  -0.064900  -0.032505

                     16         17         18         19         20
                   -0.4613    -0.4452    -0.4420    -0.4199    -0.4118
                     A          A          A          A          A   
    1  O  1  S    0.050131   0.021669   0.000701  -0.000346  -0.009317
    2  O  1  S   -0.109742  -0.047994  -0.001278   0.000576   0.024454
    3  O  1  X   -0.030630  -0.146516   0.007863  -0.002522  -0.017619
    4  O  1  Y    0.269728   0.020566   0.031867  -0.019389  -0.047816
    5  O  1  Z   -0.034631   0.005583   0.243560  -0.142796  -0.005065
    6  O  1  S   -0.210674  -0.106014  -0.003161   0.001395   0.024411
    7  O  1  X   -0.014685  -0.080921   0.004544  -0.000920  -0.026348
    8  O  1  Y    0.167870   0.008342   0.020950  -0.013312  -0.033380
    9  O  1  Z   -0.021747   0.003443   0.161119  -0.097716  -0.002663
   10  O  1 XX   -0.005662   0.007237   0.000142   0.000007   0.000430
   11  O  1 YY    0.023268   0.002854   0.003391  -0.002054  -0.001385
   12  O  1 ZZ   -0.002211   0.000118  -0.002936   0.001621   0.001861
   13  O  1 XY   -0.001939  -0.008604   0.000942  -0.000397  -0.000085
   14  O  1 XZ    0.000255   0.000634   0.003885  -0.001478  -0.000085
   15  O  1 YZ   -0.003523   0.000147   0.014827  -0.008430  -0.000208
   16  O  2  S   -0.060315   0.027819  -0.003016   0.002838  -0.035886
   17  O  2  S    0.127202  -0.056325   0.006850  -0.005902   0.072548
   18  O  2  X    0.036210   0.209039   0.003129  -0.003751   0.146450
   19  O  2  Y    0.209048  -0.154124   0.019836  -0.003847   0.269478
   20  O  2  Z   -0.016394   0.007430   0.125438   0.168542  -0.021280
   21  O  2  S    0.245777  -0.122366   0.010918  -0.011086   0.143156
   22  O  2  X    0.016976   0.128640   0.001823  -0.002641   0.092219
   23  O  2  Y    0.108825  -0.082756   0.012041  -0.001865   0.158274
   24  O  2  Z   -0.007928   0.003701   0.076183   0.100537  -0.012929
   25  O  2 XX   -0.003597  -0.000993  -0.000106   0.000109  -0.000108
   26  O  2 YY   -0.017461   0.011835  -0.001935  -0.000581  -0.016504
   27  O  2 ZZ   -0.000324   0.000320   0.001460   0.001576   0.001039
   28  O  2 XY   -0.000786  -0.014853  -0.000193   0.000264  -0.012241
   29  O  2 XZ    0.000201   0.001055  -0.001495   0.000116   0.001155
   30  O  2 YZ    0.001439  -0.000649  -0.008889  -0.012554   0.001500
   31  C  3  S   -0.006249  -0.013812  -0.000175   0.001327  -0.020018
   32  C  3  S    0.020504   0.034479   0.000017  -0.002494   0.043920
   33  C  3  X   -0.171511   0.113214   0.002962   0.000024   0.005173
   34  C  3  Y    0.061386  -0.026150   0.029025  -0.019067   0.107388
   35  C  3  Z   -0.006948   0.001555   0.232206  -0.100480  -0.019433
   36  C  3  S   -0.030212   0.015295   0.004287  -0.012527   0.135524
   37  C  3  X   -0.087189  -0.002512   0.005762  -0.008025   0.032262
   38  C  3  Y    0.011090  -0.019784   0.010500  -0.002527  -0.022710
   39  C  3  Z   -0.002884   0.004307   0.112634  -0.052396  -0.003444
   40  C  3 XX    0.005758  -0.003091  -0.000318   0.000844  -0.007242
   41  C  3 YY   -0.003177  -0.000782  -0.000170  -0.000348   0.005469
   42  C  3 ZZ   -0.001313   0.001298   0.000475  -0.000298  -0.000114
   43  C  3 XY   -0.009059  -0.018593  -0.000537   0.000407   0.005885
   44  C  3 XZ    0.000901   0.002119  -0.004560   0.006302  -0.000132
   45  C  3 YZ    0.000483   0.001274   0.000322  -0.001396  -0.000911
   46  C  4  S   -0.034729  -0.023880  -0.000749  -0.000589   0.020203
   47  C  4  S    0.062288   0.045883   0.001802   0.000903  -0.039422
   48  C  4  X    0.081646  -0.189226   0.012507  -0.002156   0.014967
   49  C  4  Y   -0.208943  -0.137849   0.008053   0.009921  -0.033135
   50  C  4  Z    0.013037   0.023069   0.126249   0.023083   0.000704
   51  C  4  S    0.182411   0.078573  -0.000350   0.007504  -0.095990
   52  C  4  X    0.052338  -0.060871   0.008695  -0.009329   0.078948
   53  C  4  Y   -0.036260  -0.046721   0.003713   0.008475  -0.045651
   54  C  4  Z    0.000529   0.008087   0.065271   0.017621  -0.000194
   55  C  4 XX   -0.005783  -0.003048  -0.000472   0.000637   0.003900
   56  C  4 YY    0.009219   0.004358   0.001213  -0.000140  -0.002300
   57  C  4 ZZ   -0.003379  -0.001886  -0.000617  -0.000780   0.001740
   58  C  4 XY   -0.000327  -0.006867  -0.000058   0.001069  -0.006756
   59  C  4 XZ    0.000334   0.000737  -0.003398   0.007817   0.000957
   60  C  4 YZ   -0.001384  -0.000263   0.005409   0.000689   0.000552
   61  C  5  S    0.047263  -0.008880   0.002309  -0.000497  -0.000098
   62  C  5  S   -0.104333   0.025119  -0.005324   0.000802  -0.001169
   63  C  5  X   -0.022590   0.287100  -0.001862  -0.003094   0.196588
   64  C  5  Y   -0.103092   0.085130   0.007470   0.030456  -0.248046
   65  C  5  Z    0.009732  -0.014982   0.146487   0.197533   0.020093
   66  C  5  S   -0.148351  -0.009694  -0.004682   0.003127  -0.000109
   67  C  5  X    0.038389   0.080462   0.002409   0.000739   0.045616
   68  C  5  Y   -0.001948   0.020221   0.006325   0.005986   0.007266
   69  C  5  Z   -0.001539  -0.002872   0.071980   0.097452   0.001875
   70  C  5 XX   -0.002412   0.000794  -0.000122   0.000136   0.007151
   71  C  5 YY    0.009656  -0.002479   0.000796   0.000054  -0.003976
   72  C  5 ZZ    0.005382  -0.002109   0.000045  -0.000896   0.003685
   73  C  5 XY    0.005278   0.007759   0.000068   0.000416  -0.000879
   74  C  5 XZ   -0.000010  -0.000788  -0.000808   0.007024   0.000537
   75  C  5 YZ   -0.000586  -0.000180   0.002362   0.001710   0.000560
   76  C  6  S    0.012278  -0.006500   0.000820  -0.000582  -0.001810
   77  C  6  S   -0.026258   0.011674  -0.002252   0.001026   0.007770
   78  C  6  X   -0.163763  -0.107526   0.012213  -0.024167   0.260334
   79  C  6  Y   -0.113505  -0.003660   0.018835  -0.008164  -0.077812
   80  C  6  Z    0.004084   0.013968   0.282916  -0.174492  -0.014714
   81  C  6  S   -0.031778   0.034021   0.000828   0.000073   0.018499
   82  C  6  X   -0.064654  -0.055313   0.004052  -0.005734   0.116741
   83  C  6  Y   -0.068355  -0.001686   0.009143  -0.003025  -0.037606
   84  C  6  Z    0.008174   0.004464   0.141905  -0.096481  -0.008152
   85  C  6 XX    0.004521   0.003567  -0.003342   0.003103  -0.014974
   86  C  6 YY    0.003417  -0.001287   0.000647  -0.001113   0.007693
   87  C  6 ZZ   -0.010215  -0.003162   0.002471  -0.001850   0.006925
   88  C  6 XY    0.000089  -0.003965   0.000568  -0.000584   0.003500
   89  C  6 XZ    0.001554   0.001982   0.011216  -0.005973  -0.003549
   90  C  6 YZ   -0.001191   0.000379   0.003553  -0.003598  -0.001046
   91  C  7  S    0.002747   0.009796   0.000054  -0.000156   0.004939
   92  C  7  S   -0.007497  -0.018100  -0.000091   0.000114  -0.010003
   93  C  7  X   -0.022260  -0.008141   0.006315   0.026952  -0.211740
   94  C  7  Y   -0.093355   0.253644   0.000466   0.021980   0.124178
   95  C  7  Z    0.007857  -0.016378   0.141771   0.339959   0.023686
   96  C  7  S   -0.016479  -0.018706  -0.001018  -0.001549   0.025942
   97  C  7  X   -0.032012  -0.001109   0.002412   0.014363  -0.121676
   98  C  7  Y   -0.055961   0.124669  -0.000409   0.011015   0.063435
   99  C  7  Z    0.006562  -0.007914   0.064277   0.165645   0.012528
  100  C  7 XX   -0.002189   0.006419  -0.000837  -0.001347   0.005686
  101  C  7 YY   -0.001929   0.003000  -0.001453  -0.003526  -0.003824
  102  C  7 ZZ    0.003563  -0.011779   0.002405   0.005097  -0.006103
  103  C  7 XY    0.001298  -0.002193  -0.000727  -0.001573  -0.008976
  104  C  7 XZ    0.000508  -0.001559  -0.002978  -0.004232  -0.000112
  105  C  7 YZ    0.000986  -0.002496  -0.005164  -0.015341  -0.000969
  106  H  8  S    0.153652   0.097777   0.003187  -0.004269  -0.003209
  107  H  8  S    0.105175   0.058618   0.001897  -0.001777  -0.012871
  108  H  9  S   -0.074677  -0.014510   0.141681  -0.091487   0.029021
  109  H  9  S   -0.038609  -0.020776   0.099938  -0.057191   0.028062
  110  H 10  S    0.070829   0.072561  -0.021765   0.025092  -0.174523
  111  H 10  S    0.067535   0.049613  -0.017726   0.022629  -0.146277
  112  H 11  S   -0.080923  -0.039856  -0.126103   0.073239   0.069885
  113  H 11  S   -0.034519  -0.043440  -0.087162   0.038317   0.059641
  114  H 12  S    0.032574  -0.105056  -0.061773  -0.163106  -0.067498
  115  H 12  S    0.024444  -0.069115  -0.046489  -0.124159  -0.053113
  116  H 13  S   -0.041209   0.072616  -0.007296  -0.005419  -0.067112
  117  H 13  S   -0.007125   0.050920  -0.004722  -0.005432  -0.038177
  118  H 14  S    0.027241  -0.091558   0.074029   0.179143  -0.042897
  119  H 14  S    0.020219  -0.060377   0.055518   0.136584  -0.033803
  120  H 15  S    0.069746   0.074792   0.001058  -0.001071  -0.013247
  121  H 15  S    0.039110   0.055339  -0.000095   0.000632  -0.022724

                     21         22         23         24         25
                   -0.3802    -0.3765    -0.3725    -0.3564    -0.3458
                     A          A          A          A          A   
    1  O  1  S    0.011720  -0.014753   0.000964   0.041251   0.001798
    2  O  1  S   -0.022476   0.031553  -0.003193  -0.082819  -0.002705
    3  O  1  X    0.060532   0.034896   0.011258  -0.011587  -0.002567
    4  O  1  Y    0.207041  -0.115267   0.051384   0.391593   0.011394
    5  O  1  Z   -0.012823   0.081046   0.454310  -0.027191  -0.078221
    6  O  1  S   -0.036566   0.059243  -0.000741  -0.175582  -0.011508
    7  O  1  X    0.038340   0.022075   0.009862   0.011556  -0.002395
    8  O  1  Y    0.138886  -0.074765   0.037456   0.266034   0.005790
    9  O  1  Z   -0.007775   0.056965   0.324071  -0.018169  -0.061868
   10  O  1 XX   -0.005961   0.000417  -0.000056   0.006915   0.000504
   11  O  1 YY    0.012952  -0.007879   0.004266   0.019231   0.000363
   12  O  1 ZZ   -0.001748   0.000439  -0.004749  -0.002022   0.000909
   13  O  1 XY    0.001342   0.002752   0.000826  -0.005365  -0.000457
   14  O  1 XZ    0.000095   0.000247   0.002367   0.000201   0.000213
   15  O  1 YZ   -0.001254   0.004487   0.022102  -0.001749  -0.004277
   16  O  2  S    0.006756  -0.034893   0.006008  -0.001032   0.000453
   17  O  2  S   -0.020494   0.066346  -0.011874   0.001149  -0.001559
   18  O  2  X   -0.095311   0.020206  -0.002711   0.018127   0.019219
   19  O  2  Y    0.020437   0.303840  -0.050627   0.049331   0.032425
   20  O  2  Z   -0.003175  -0.023109  -0.023883  -0.022704   0.421968
   21  O  2  S   -0.012001   0.153740  -0.025496   0.001869  -0.000389
   22  O  2  X   -0.061585   0.019922  -0.002889   0.010573   0.012196
   23  O  2  Y    0.010155   0.178962  -0.030927   0.033701   0.021637
   24  O  2  Z   -0.002161  -0.013558  -0.016835  -0.014867   0.280922
[...]
             66  C  5  S      0.40412     0.27538
             67  C  5  X      0.14863     0.32594
             68  C  5  Y      0.02027     0.27155
             69  C  5  Z      0.28336     0.34825
             70  C  5 XX     -0.00339     0.15838
             71  C  5 YY      0.01044     0.19681
             72  C  5 ZZ     -0.02579     0.10425
             73  C  5 XY      0.03766     0.08608
             74  C  5 XZ      0.00653     0.01349
             75  C  5 YZ      0.01662     0.03373
             76  C  6  S      1.99189     1.97859
             77  C  6  S      0.67457     0.36259
             78  C  6  X      0.74698     0.67343
             79  C  6  Y      0.69262     0.62469
             80  C  6  Z      0.72178     0.64614
             81  C  6  S      0.65501     0.32941
             82  C  6  X      0.39153     0.48265
             83  C  6  Y      0.29794     0.40043
             84  C  6  Z      0.36974     0.48836
             85  C  6 XX      0.00495     0.15020
             86  C  6 YY     -0.00128     0.15232
             87  C  6 ZZ      0.00451     0.15080
             88  C  6 XY      0.00645     0.01251
             89  C  6 XZ      0.00912     0.01598
             90  C  6 YZ      0.00456     0.00925
             91  C  7  S      1.99190     1.97869
             92  C  7  S      0.67900     0.36736
             93  C  7  X      0.70638     0.63568
             94  C  7  Y      0.72235     0.64956
             95  C  7  Z      0.71582     0.64136
             96  C  7  S      0.65490     0.33289
             97  C  7  X      0.31723     0.42994
             98  C  7  Y      0.35274     0.45267
             99  C  7  Z      0.37216     0.49255
            100  C  7 XX      0.00140     0.15302
            101  C  7 YY     -0.00043     0.14721
            102  C  7 ZZ      0.00568     0.15510
            103  C  7 XY      0.00931     0.01658
            104  C  7 XZ      0.00153     0.00286
            105  C  7 YZ      0.00982     0.01797
            106  H  8  S      0.52750     0.48139
            107  H  8  S      0.33079     0.35070
            108  H  9  S      0.51731     0.47620
            109  H  9  S      0.29197     0.34393
            110  H 10  S      0.51808     0.47686
            111  H 10  S      0.29372     0.34476
            112  H 11  S      0.51361     0.47167
            113  H 11  S      0.27767     0.33712
            114  H 12  S      0.51803     0.47716
            115  H 12  S      0.30076     0.34710
            116  H 13  S      0.52280     0.48252
            117  H 13  S      0.31108     0.35166
            118  H 14  S      0.51838     0.47805
            119  H 14  S      0.30144     0.34738
            120  H 15  S      0.46109     0.41963
            121  H 15  S      0.09269     0.19895

          ----- MULLIKEN ATOMIC OVERLAP POPULATIONS -----
          (OFF-DIAGONAL ELEMENTS NEED TO BE MULTIPLIED BY 2)

             1           2           3           4           5

    1    8.1713508
    2    0.0000262   8.1219870
    3    0.3087615  -0.0002634   4.4859551
    4   -0.0473403  -0.0915269   0.5614525   5.3569681
    5    0.0018185   0.5668470  -0.0071037   0.3435492   4.4230607
    6   -0.0699879  -0.0215672   0.3710670  -0.0569292  -0.0096478
    7   -0.0000633  -0.0838768   0.0075423  -0.1265119   0.3451844
    8   -0.0016895   0.0032470  -0.0377274   0.3381642  -0.0352738
    9   -0.0003629   0.0003807  -0.0270804  -0.0003296   0.0003187
   10   -0.0007312   0.0004420  -0.0273732   0.0001598   0.0003253
   11    0.0030685   0.0372470  -0.0136216  -0.0129833   0.0013920
   12    0.0000003   0.0014203  -0.0002382   0.0031694  -0.0214711
   13    0.0000003   0.0065440  -0.0001619   0.0061543  -0.0224836
   14    0.0000003   0.0014838  -0.0001613   0.0032489  -0.0217279
   15    0.2471421   0.0000120  -0.0306471   0.0061185  -0.0000445

             6           7           8           9          10

    6    5.3144104
    7   -0.0002824   5.3439944
    8    0.0069286  -0.0025986   0.5863835
    9    0.3572273   0.0000052  -0.0001582   0.5255775
   10    0.3543727   0.0000072  -0.0001587  -0.0301091   0.5290522
   11    0.3275576   0.0008134  -0.0000536  -0.0183355  -0.0171724
   12    0.0000087   0.3536941   0.0006625  -0.0000002   0.0000001
   13    0.0000086   0.3483868   0.0000710  -0.0000001  -0.0000002
   14    0.0000040   0.3535023   0.0007014   0.0000002  -0.0000002
   15   -0.0027956   0.0000057  -0.0002047   0.0021468   0.0029899

            11          12          13          14          15

   11    0.4831281
   12   -0.0000242   0.5288244
   13   -0.0000112  -0.0217923   0.5392157
   14   -0.0000189  -0.0254705  -0.0220465   0.5303044
   15    0.0002914  -0.0000001  -0.0000000  -0.0000001   0.3287619

          TOTAL MULLIKEN AND LOWDIN ATOMIC POPULATIONS
       ATOM         MULL.POP.    CHARGE          LOW.POP.     CHARGE
    1 O             8.611993   -0.611993         8.359994   -0.359994
    2 O             8.542403   -0.542403         8.332006   -0.332006
    3 C             5.590400    0.409600         5.838560    0.161440
    4 C             6.283364   -0.283364         6.294834   -0.294834
    5 C             5.564744    0.435256         5.838700    0.161300
    6 C             6.570375   -0.570375         6.477368   -0.477368
    7 C             6.539803   -0.539803         6.473439   -0.473439
    8 H             0.858294    0.141706         0.832085    0.167915
    9 H             0.809280    0.190720         0.820130    0.179870
   10 H             0.811804    0.188196         0.821627    0.178373
   11 H             0.791277    0.208723         0.808794    0.191206
   12 H             0.818783    0.181217         0.824262    0.175738
   13 H             0.833885    0.166115         0.834181    0.165819
   14 H             0.819820    0.180180         0.825430    0.174570
   15 H             0.553776    0.446224         0.618589    0.381411

          -------------------------------
          BOND ORDER AND VALENCE ANALYSIS     BOND ORDER THRESHOLD=0.050
          -------------------------------

                   BOND                       BOND                       BOND
  ATOM PAIR DIST  ORDER      ATOM PAIR DIST  ORDER      ATOM PAIR DIST  ORDER
    1   3  1.356  1.042        1   4  2.312  0.072        1  15  0.973  0.747
    2   3  2.997  0.059        2   5  1.237  1.760        2  11  2.202  0.064
    3   4  1.359  1.655        3   6  1.497  1.030        4   5  1.462  1.100
    4   8  1.087  0.912        5   7  1.523  0.974        6   9  1.098  0.919
    6  10  1.098  0.919        6  11  1.088  0.893        7  12  1.098  0.929
    7  13  1.092  0.944        7  14  1.097  0.930

                       TOTAL       BONDED        FREE
      ATOM            VALENCE     VALENCE     VALENCE
    1 O                 1.927       1.927       0.000
    2 O                 1.981       1.981      -0.000
    3 C                 3.831       3.831       0.000
    4 C                 3.786       3.786      -0.000
    5 C                 3.893       3.893       0.000
    6 C                 3.771       3.771      -0.000
    7 C                 3.781       3.781       0.000
    8 H                 0.940       0.940      -0.000
    9 H                 0.922       0.922      -0.000
   10 H                 0.924       0.924      -0.000
   11 H                 0.955       0.955       0.000
   12 H                 0.927       0.927      -0.000
   13 H                 0.942       0.942      -0.000
   14 H                 0.928       0.928       0.000
   15 H                 0.774       0.774       0.000

    **** A SOLVENT MODEL IS IN USE IN THIS RUN ****
 ELECTRICAL PROPERTIES (MOMENTS, DENSITY, FIELD/GRADIENT, AND/OR POTENTIAL)
 ARE COMPUTED USING THE SOLVATED SYSTEM'S DENSITY MATRIX, BUT
 ONLY WITH AO INTEGRAL CONTRIBUTIONS FROM THE QUANTUM SOLUTE.
 THE ONE EXCEPTION IS THE DIPOLE, WHICH IS ALSO PRINTED FOR THE TOTAL SYSTEM.

          ----------------------------
          SOLUTE ELECTROSTATIC MOMENTS
          ----------------------------

 POINT   1           X           Y           Z (BOHR)    CHARGE
                 0.036604    0.079070    0.004769        0.00 (A.U.)
         DX          DY          DZ         /D/  (DEBYE)
    -3.717327   -1.175464    0.465929    3.926490

          ----------------------------
          SYSTEM ELECTROSTATIC MOMENTS
          ----------------------------

 POINT   1           X           Y           Z (BOHR)    CHARGE
                 0.036604    0.079070    0.004769        0.00 (A.U.)
         DX          DY          DZ         /D/  (DEBYE)
    -3.717327   -1.175464    0.465929    3.926490
 INCLUDING PCM SURFACE CHARGES, TOTAL CHARGE=   -0.007582, AND TOTAL DIPOLE IS
         DX          DY          DZ         /D/  (DEBYE)
    -0.281237   -0.027602    0.045137    0.286170
 ...... END OF PROPERTY EVALUATION ......
 STEP CPU TIME =     0.05 TOTAL CPU TIME =       1685.8 (     28.1 MIN)
 TOTAL WALL CLOCK TIME=       1694.0 SECONDS, CPU UTILIZATION IS    99.52%
  $VIB   
          IVIB=   0 IATOM=   0 ICOORD=   0 E=     -345.5909702123
  1.969453755E-04 3.596654194E-05-6.121882599E-05 5.376970048E-05 4.837535152E-04
 -4.196214495E-05 1.648962199E-06 1.354233291E-05-1.687493046E-05-1.106998705E-04
 -2.123524683E-04 9.886304993E-05-1.579046115E-04-2.648465868E-04-5.433308753E-05
 -1.784624544E-04 8.810441211E-05 3.520334690E-05-2.044994841E-04-3.249640249E-05
  1.304120155E-04 4.629185035E-05 4.675697206E-05 1.442443857E-05 1.223020664E-04
 -6.853039174E-05-1.547553231E-04 1.732148325E-04-5.487656456E-05 1.407186466E-04
 -2.836611946E-05-2.008257438E-05 7.965126881E-06 2.613479399E-05-1.081178458E-04
 -9.896205479E-05 1.433183410E-04 8.272269263E-05-1.168344236E-05-3.028551535E-05
 -1.579390283E-05-1.681583518E-06-5.340786712E-05 2.625027013E-05 1.388476827E-05
 -3.717326621E+00-1.175463665E+00 4.659289889E-01
 ......END OF GEOMETRY SEARCH......
 STEP CPU TIME =     0.00 TOTAL CPU TIME =       1685.8 (     28.1 MIN)
 TOTAL WALL CLOCK TIME=       1694.0 SECONDS, CPU UTILIZATION IS    99.52%

             ----------------------------------------------
             -------   RESULTS OF PCM CALCULATION   -------
             ----------------------------------------------

 FREE ENERGY IN SOLVENT = <PSI| H(0)+V/2 |PSI>       =     -345.5909702123 A.U.
 INTERNAL ENERGY IN SOLVENT = <PSI| H(0) |PSI>       =     -345.5777859157 A.U.
 DELTA INTERNAL ENERGY =  <D-PSI| H(0) |D-PSI>       =        0.0000000000 A.U.
 ELECTROSTATIC INTERACTION                           =       -0.0131842966 A.U.
 PIEROTTI CAVITATION ENERGY                          =        0.0000000000 A.U.
 DISPERSION FREE ENERGY                              =        0.0000000000 A.U.
 REPULSION FREE ENERGY                               =        0.0000000000 A.U.
 TOTAL INTERACTION (DELTA + ES + CAV + DISP + REP)   =       -0.0131842966 A.U.
 TOTAL FREE ENERGY IN SOLVENT                        =     -345.5909702123 A.U.

 FREE ENERGY IN SOLVENT       =     -216861.63 KCAL/MOL
 INTERNAL ENERGY IN SOLVENT   =     -216853.36 KCAL/MOL
 DELTA INTERNAL ENERGY        =           0.00 KCAL/MOL
 ELECTROSTATIC INTERACTION    =          -8.27 KCAL/MOL
 PIEROTTI CAVITATION ENERGY   =           0.00 KCAL/MOL
 DISPERSION FREE ENERGY       =           0.00 KCAL/MOL
 REPULSION FREE ENERGY        =           0.00 KCAL/MOL
 TOTAL INTERACTION            =          -8.27 KCAL/MOL
 TOTAL FREE ENERGY IN SOLVENT =     -216861.63 KCAL/MOL

 -INTERNAL ENERGY IN SOLVENT-
    OMITS ES,CAV,DISP,REP (USES SOLVATED ORBITALS IN THE GAS PHASE HAMILTONIAN)
 -FREE ENERGY IN SOLVENT-
    INCLUDES ES+DISP+REP WHICH ARE IN THE SELF-CONSISTENT WAVEFUNCTION.
 -TOTAL FREE ENERGY IN SOLVENT-
    INCLUDES ES+DISP+REP+CAV, MEANING CAVITATION IS NOT IN THE SCF ENERGY.

 .... DONE PRINTING PCM SOLVENT SUMMARY ....
 STEP CPU TIME =     0.00 TOTAL CPU TIME =       1685.8 (     28.1 MIN)
 TOTAL WALL CLOCK TIME=       1694.0 SECONDS, CPU UTILIZATION IS    99.52%
               1301965  WORDS OF DYNAMIC MEMORY USED
 EXECUTION OF GAMESS TERMINATED NORMALLY Thu Apr 30 08:04:09 2026
 DDI: 263640 bytes (0.3 MB / 0 MWords) used by master data server.

 ----------------------------------------
 CPU timing information for all processes
 ========================================
 0: 1680.960 + 4.885 = 1685.846
 ----------------------------------------
 ddikick.x: exited gracefully.
----- accounting info -----
Files used on the master node chemcompute-node-0.novalocal were:
-rw-r--r--. 1 chemcomp chemcomp     1282 Apr 30 07:35 /scratch/1118337/1594899.F05
-rw-rw-r--. 1 chemcomp chemcomp 58982400 Apr 30 08:04 /scratch/1118337/1594899.F10
-rw-rw-r--. 1 chemcomp chemcomp  7462424 Apr 30 08:03 /scratch/1118337/1594899.F22
-rw-rw-r--. 1 chemcomp chemcomp        8 Apr 30 08:03 /scratch/1118337/1594899.F26
-rw-rw-r--. 1 chemcomp chemcomp        0 Apr 30 07:35 /scratch/1118337/1594899.F27
Thu Apr 30 08:04:13 UTC 2026
0.092u 0.040s 28:17.38 0.0%	0+0k 8+208io 0pf+0w
Finishing Up...
Wrote IR file to: Gamess.ir
vibramans not found, parsing from GAMESS output
Wrote Raman file to: Gamess.raman
Wrote Thermodynamics file to: Gamess.thermo
Wrote UV-Vis file to: Gamess.uvvis
Wrote Electronic Energy file to: Gamess.energy
Wrote Geometry Optimization file to: Gamess.molden
Wrote Atomic Charges file to: Gamess.charges
Wrote all Results to: Gamess.cclib
reading wave-function from mo.molden
Loading data from molden type file mo.molden

Converting the regular grid to a vector grid containing 2.03e+05 grid points...

Starting the calculation of the molecular orbitals...
The grid has been separated into 21 slices each having 1.00e+04 grid points.
The calculation will be carried out using only one process.

	The number of subprocesses can be changed with -p


There are 121 contracted Cartesian AOs and 37 MOs to be calculated.
	Finished 10 % (4 slices in 0.405 s)
	Finished 20 % (2 slices in 0.179 s)
	Finished 30 % (2 slices in 0.176 s)
	Finished 40 % (2 slices in 0.174 s)
	Finished 50 % (2 slices in 0.174 s)
	Finished 60 % (2 slices in 0.176 s)
	Finished 70 % (2 slices in 0.179 s)
	Finished 80 % (2 slices in 0.181 s)
	Finished 90 % (2 slices in 0.187 s)
Converting the output from a vector grid to a regular grid...

Norm of the MOs:
	1.163166	MO 1.A (Occ = 2.00, E = -19.1925 E_h)
	0.764450	MO 2.A (Occ = 2.00, E = -19.1211 E_h)
	0.885306	MO 3.A (Occ = 2.00, E = -10.2728 E_h)
	1.066083	MO 4.A (Occ = 2.00, E = -10.2671 E_h)
	0.920507	MO 5.A (Occ = 2.00, E = -10.1855 E_h)
	1.239250	MO 6.A (Occ = 2.00, E = -10.1752 E_h)
	0.869427	MO 7.A (Occ = 2.00, E = -10.1734 E_h)
	1.008020	MO 8.A (Occ = 2.00, E = -1.0742 E_h)
	0.991837	MO 9.A (Occ = 2.00, E = -1.0168 E_h)
	0.995409	MO 10.A (Occ = 2.00, E = -0.7901 E_h)
	1.002729	MO 11.A (Occ = 2.00, E = -0.7420 E_h)
	1.000289	MO 12.A (Occ = 2.00, E = -0.7019 E_h)
	0.999454	MO 13.A (Occ = 2.00, E = -0.6174 E_h)
	1.000473	MO 14.A (Occ = 2.00, E = -0.5217 E_h)
	0.998877	MO 15.A (Occ = 2.00, E = -0.5062 E_h)
	0.998869	MO 16.A (Occ = 2.00, E = -0.4608 E_h)
	1.000430	MO 17.A (Occ = 2.00, E = -0.4468 E_h)
	0.999754	MO 18.A (Occ = 2.00, E = -0.4452 E_h)
	0.999890	MO 19.A (Occ = 2.00, E = -0.4237 E_h)
	0.999745	MO 20.A (Occ = 2.00, E = -0.4115 E_h)
	0.999885	MO 21.A (Occ = 2.00, E = -0.3816 E_h)
	0.999818	MO 22.A (Occ = 2.00, E = -0.3748 E_h)
	0.999291	MO 23.A (Occ = 2.00, E = -0.3724 E_h)
	0.999529	MO 24.A (Occ = 2.00, E = -0.3556 E_h)
	0.999588	MO 25.A (Occ = 2.00, E = -0.3469 E_h)
	1.000477	MO 26.A (Occ = 2.00, E = -0.2391 E_h)
	0.999574	MO 27.A (Occ = 2.00, E = -0.2347 E_h)
	0.999696	MO 28.A (Occ = 0.00, E = -0.0363 E_h)
	1.000850	MO 29.A (Occ = 0.00, E = +0.0783 E_h)
	1.000134	MO 30.A (Occ = 0.00, E = +0.0790 E_h)
	1.001353	MO 31.A (Occ = 0.00, E = +0.1161 E_h)
	1.001587	MO 32.A (Occ = 0.00, E = +0.1382 E_h)
	1.000026	MO 33.A (Occ = 0.00, E = +0.1645 E_h)
	1.000518	MO 34.A (Occ = 0.00, E = +0.1661 E_h)
	0.999950	MO 35.A (Occ = 0.00, E = +0.1773 E_h)
	0.999264	MO 36.A (Occ = 0.00, E = +0.1942 E_h)
	0.999878	MO 37.A (Occ = 0.00, E = +0.2021 E_h)
[done] wrote 38 entries to mo_cutoffs.json
total density…
JmolData using command options ["-n", "-s", "rho.spt"]
{noDisplay=true, noConsole=true, exit=true, headlessMaxTimeMs=60000, JmolData=true, isDataOnly=true}
Jmol version 16.3.31  2025-07-21 14:08
Operating headless display=null nographicsallowed=true
Executing script from file: rho.spt
jmolapp evalfilearsgs  rho.spt
Executing script: ;exitJmol;
FileManager opening file /data/slurm/159/1594899/rho.spt

FileManager.getAtomSetCollectionFromFile(/data/slurm/159/1594899/Gamess.stdout)
FileManager opening file /data/slurm/159/1594899/Gamess.stdout
The Resolver thinks GamessUS
          *         GAMESS VERSION = 30 JUN 2019 (R1)          *

          1 ELECTRON INTEGRALS
 ...... END OF ONE-ELECTRON INTEGRALS ......
121 molecular orbitals read in model 2
Molecular dipole for model 2 = {-3.347937, -0.997883, 0.192074}
Molecular dipole for model 2 = {-3.347937, -0.997883, 0.192074}
37 molecular orbitals read in model 44
Molecular dipole for model 44 = {-3.717327, -1.175464, 0.465929}
Molecular dipole for model 44 = {-3.717327, -1.175464, 0.465929}
Time for openFile(/data/slurm/159/1594899/Gamess.stdout): 224 ms
reading 660 atoms
ModelSet: haveSymmetry:false haveUnitcells:false haveFractionalCoord:false
44 models in this collection. Use getProperty "modelInfo" or getProperty "auxiliaryInfo" to inspect them.
Default Van der Waals type for model set to Babel
660 atoms created
ModelSet: autobonding; use  autobond=false  to not generate bonds automatically
Time for creating model: 33 ms
44 models
121 molecular orbitals in model 1.2
37 molecular orbitals in model 1.44

MO 28
Molecular orbital #1/121 6-31G(d) B3LYP RHF OPTIMIZE
15 atoms will be used in the surface calculation
Maximum number of voxels for index=0 exceeded (118) -- set to 80
Maximum number of voxels for index=1 exceeded (90) -- set to 80
generating isosurface data for MO using cutoff 1.9569258E-4
QuantumCalculation:
 origin = [-5.7165, -4.38492, -3.5298]
 range (Ang) = [11.863067, 9.084203, 7.1488175]
 steps (Bohr)= [0.28022286, 0.21458206, 0.19027093]
 origin(Bohr)= [-10.802562, -8.286254, -6.67032]
 steps = [0.28022286, 0.21458206, 0.19027093]
 counts= 80 80 71
calculation type: 6-31G(d) B3LYP RHF OPTIMIZE OK.
boundbox corners {-3.8565466 -2.5996823 -1.77181} {4.234016 2.8058193 1.7603927}
rho created  with cutoff=1.9569258E-4; isosurface count: 1
isosurface full data range -1.0 to 1.0 with color scheme spanning -1.0 to 1.0
#created by Jmol Version 16.3.31  2025-07-21 14:08 on Thu Apr 30 08:04:18 UTC 2026
MO
calculation type: 6-31G(d) B3LYP RHF OPTIMIZE

isosurface resolution for axis 1 set to 6.7436185 points/Angstrom; 80 voxels
isosurface resolution for axis 2 set to 8.806497 points/Angstrom; 80 voxels
isosurface resolution for axis 3 set to 9.931712 points/Angstrom; 71 voxels
454400 voxels total

1 id:rho; model:1.2; vertices:10932; polygons:21860; visible:true; dataRange:[-1.0, 1.0, -1.0, 1.0]; title:isosurface rho cutoff 0.01398901646860649 mo density;

<jvxlSurfaceInfo 
  isModelConnected="true" 
  cutoff="1.9569258E-4" 
  isCutoffAbsolute="true" 
  pointsPerAngstrom="6.7436185" 
  nBytesData="40411" 
  isXLowToHigh="false" 
  nSurfaceInts="3694" 
  nBytesUncompressedEdgeData="10931" 
  nBytesUncompressedColorData="25600" 
  precisionColor="true" 
  bicolorMap="true" 
  colorNegative="[xff0000]" 
  colorPositive="[x0000ff]" 
  color="[xffa500]" 
  translucency="0.0" 
  rendering="fill noMesh noDots notFrontOnly frontlit" 
  slabbable="true" 
  xyzMin="{-3.8565466 -2.5996823 -1.77181}" 
  xyzMax="{4.234016 2.8058193 1.7603927}" 
  approximateCompressionRatio="not calculated" 
  jmolVersion="Jmol 16.3.31  2025-07-21 14:08">
</jvxlSurfaceInfo>


chemcompute.org
{'UTCtimestamp': '2026-04-30T08:04:29.155926', 'cluster': 'jetstream2', 'clusterJobNumber': '1118337', 'status': 'COMPLETE', 'nodeList': 'chemcompute-node-0'}
1118337
