----- GAMESS execution script 'rungms' -----
This job is running on host chemcompute-node-0.novalocal
under operating system Linux at Thu Apr 30 06:23:50 UTC 2026
SLURM has assigned the following compute nodes to this run:
Available scratch disk space (Kbyte units) at beginning of the job is
Filesystem     1K-blocks     Used Available Use% Mounted on
/dev/sda4       61775852 12562328  49213524  21% /
GAMESS temporary binary files will be written to /scratch/1118310
GAMESS supplementary output files will be written to /data/slurm/159/1594872
Copying input file 1594872.inp to your run's scratch directory...
The generated host list is
chemcompute-node-0.novalocal

 Distributed Data Interface kickoff program.
 Initiating 1 compute processes on 1 nodes to run the following command:
 /data/gamess-2019R1-avx2-ddi/gamess.00.x 1594872 

          ******************************************************
          *         GAMESS VERSION = 30 JUN 2019 (R1)          *
          *             FROM IOWA STATE UNIVERSITY             *
          * M.W.SCHMIDT, K.K.BALDRIDGE, J.A.BOATZ, S.T.ELBERT, *
          *   M.S.GORDON, J.H.JENSEN, S.KOSEKI, N.MATSUNAGA,   *
          *          K.A.NGUYEN, S.J.SU, T.L.WINDUS,           *
          *       TOGETHER WITH M.DUPUIS, J.A.MONTGOMERY       *
          *         J.COMPUT.CHEM.  14, 1347-1363(1993)        *
          **************** 64 BIT INTEL VERSION ****************

  SINCE 1993, STUDENTS AND POSTDOCS WORKING AT IOWA STATE UNIVERSITY
  AND ALSO IN THEIR VARIOUS JOBS AFTER LEAVING ISU HAVE MADE IMPORTANT
  CONTRIBUTIONS TO THE CODE:
     IVANA ADAMOVIC, CHRISTINE AIKENS, YURI ALEXEEV, POOJA ARORA,
     ANDREY ASADCHEV, ROB BELL, PRADIPTA BANDYOPADHYAY, JONATHAN BENTZ,
     COLLEEN BERTONI, BRETT BODE, KURT BRORSEN, CALEB CARLIN, GALINA CHABAN,
     WEI CHEN, CHEOL HO CHOI, PAUL DAY, ALBERT DEFUSCO, NUWAN DESILVA,
     TIM DUDLEY, DMITRI FEDOROV, ALEX FINDLATER, GRAHAM FLETCHER, 
     MARK FREITAG, KURT GLAESEMANN, ANASTASIA GUNINA,
     DAN KEMP, GRANT MERRILL, NORIYUKI MINEZAWA, JONATHAN MULLIN,
     TAKESHI NAGATA, SEAN NEDD, HEATHER NETZLOFF, BOSILJKA NJEGIC, RYAN OLSON,
     MIKE PAK, BUU PHAM,
     SPENCER PRUITT, LUKE ROSKOP, JIM SHOEMAKER, LYUDMILA SLIPCHENKO,
     TONY SMITH, SAROM SOK LEANG, JIE SONG, TETSUYA TAKETSUGU, SIMON WEBB,
     PENG XU, SOOHAENG YOO, FEDERICO ZAHARIEV

  ADDITIONAL CODE HAS BEEN PROVIDED BY COLLABORATORS IN OTHER GROUPS:
     IOWA STATE UNIVERSITY:
          JOE IVANIC, AARON WEST, LAIMUTIS BYTAUTAS, KLAUS RUEDENBERG
     UNIVERSITY OF TOKYO: KIMIHIKO HIRAO, TAKAHITO NAKAJIMA,
          TAKAO TSUNEDA, MUNEAKI KAMIYA, SUSUMU YANAGISAWA,
          KIYOSHI YAGI, MAHITO CHIBA, SEIKEN TOKURA, NAOAKI KAWAKAMI
     UNIVERSITY OF AARHUS: FRANK JENSEN
     UNIVERSITY OF IOWA: VISVALDAS KAIRYS, HUI LI
     NATIONAL INST. OF STANDARDS AND TECHNOLOGY: WALT STEVENS, DAVID GARMER
     UNIVERSITY OF PISA: BENEDETTA MENNUCCI, JACOPO TOMASI
     UNIVERSITY OF MEMPHIS: HENRY KURTZ, PRAKASHAN KORAMBATH
     UNIVERSITY OF ALBERTA: TOBY ZENG, MARIUSZ KLOBUKOWSKI
     UNIVERSITY OF NEW ENGLAND: MARK SPACKMAN
     MIE UNIVERSITY: HIROAKI UMEDA
     NAT. INST. OF ADVANCED INDUSTRIAL SCIENCE AND TECHNOLOGY: KAZUO KITAURA
     MICHIGAN STATE UNIVERSITY:
          KAROL KOWALSKI, MARTA WLOCH, JEFFREY GOUR, JESSE LUTZ,
          WEI LI, JUN SHEN, J. EMILIANO DEUSTUA, PIOTR PIECUCH
     UNIVERSITY OF MINNESOTA:
          YINAN SHU
     UNIVERSITY OF SILESIA: MONIKA MUSIAL, STANISLAW KUCHARSKI
     FACULTES UNIVERSITAIRES NOTRE-DAME DE LA PAIX:
          OLIVIER QUINET, BENOIT CHAMPAGNE
     UNIVERSITY OF CALIFORNIA - SANTA BARBARA: BERNARD KIRTMAN
     INSTITUTE FOR MOLECULAR SCIENCE:
          KAZUYA ISHIMURA, MICHIO KATOUDA, AND SHIGERU NAGASE
     UNIVERSITY OF NOTRE DAME: ANNA POMOGAEVA, DAN CHIPMAN
     KYUSHU UNIVERSITY:
          HARUYUKI NAKANO,
          FENG LONG GU, JACEK KORCHOWIEC, MARCIN MAKOWSKI, AND YURIKO AOKI,
          HIROTOSHI MORI AND EISAKU MIYOSHI
     PENNSYLVANIA STATE UNIVERSITY:
          TZVETELIN IORDANOV, CHET SWALINA, JONATHAN SKONE,
          SHARON HAMMES-SCHIFFER
     WASEDA UNIVERSITY:
          MASATO KOBAYASHI, TOMOKO AKAMA, TSUGUKI TOUMA,
          TAKESHI YOSHIKAWA, YASUHIRO IKABATA, JUNJI SEINO,
          YUYA NAKAJIMA, HIROMI NAKAI
     NANJING UNIVERSITY: SHUHUA LI
     UNIVERSITY OF NEBRASKA:
          PEIFENG SU, DEJUN SI, NANDUN THELLAMUREGE, YALI WANG, HUI LI
     UNIVERSITY OF ZURICH: ROBERTO PEVERATI, KIM BALDRIDGE
     N. COPERNICUS UNIVERSITY AND JACKSON STATE UNIVERSITY:
          MARIA BARYSZ
     UNIVERSITY OF COPENHAGEN: Jimmy Kromann, CASPER STEINMANN
     TOKYO INSTITUTE OF TECHNOLOGY: HIROYA NAKATA
     NAGOYA UNIVERSITY: YOSHIO NISHIMOTO, STEPHAN IRLE
     MOSCOW STATE UNIVERSITY: VLADIMIR MIRONOV
     A.N.NESMEYANOV INSTITUTE OF ORGANOELEMENT COMPOUNDS OF RUSSIAN ACADEMY OF SCIENCES:
          IGOR S. GERASIMOV

 EXECUTION OF GAMESS BEGUN Thu Apr 30 06:23:50 2026

            ECHO OF THE FIRST FEW INPUT CARDS -
 INPUT CARD>!                                                                               
 INPUT CARD>!   GAMESS Calculation input file                                               
 INPUT CARD>!                                                                               
 INPUT CARD>!                                                                               
 INPUT CARD> $CONTRL SCFTYP=RHF MAXIT=200 RUNTYP=OPTIMIZE                                   
 INPUT CARD>         COORD=UNIQUE MULT=1                                                    
 INPUT CARD>         ICHARG=0                                                               
 INPUT CARD>         MOLPLT=.FALSE. PLTORB=.FALSE.  $END                                    
 INPUT CARD> $SYSTEM TIMLIM=2879 MWORDS=250  $END                                           
 INPUT CARD>                                                                                
 INPUT CARD> $STATPT OPTTOL=0.0005 NSTEP=999 $END                                           
 INPUT CARD> $STATPT IHREP=0  $END                                                          
 INPUT CARD>                                                                                
 INPUT CARD> $BASIS  GBASIS=N31 NGAUSS=6                                                    
 INPUT CARD>         NDFUNC=1   NPFUNC=0  $END                                              
 INPUT CARD>                                                                                
 INPUT CARD> $SCF    DIRSCF=.T. $END                                                        
 INPUT CARD> $GUESS  GUESS=HUCKEL  $END                                                     
 INPUT CARD>                                                                                
 INPUT CARD> $DATA                                                                          
 INPUT CARD>                                                                                
 INPUT CARD>  C1                                                                            
 INPUT CARD>O     8.0    -1.36151    -1.20841     0.03802                                   
 INPUT CARD>O     8.0     1.36125    -1.20926    -0.03733                                   
 INPUT CARD>C     6.0     0.00023     0.79899     0.01526                                   
 INPUT CARD>C     6.0    -1.29440     0.01465     0.00640                                   
 INPUT CARD>C     6.0     1.29445     0.01377    -0.00373                                   
 INPUT CARD>C     6.0    -2.56164     0.82122    -0.02176                                   
 INPUT CARD>C     6.0     2.56160     0.82075     0.00427                                   
 INPUT CARD>H     1.0     0.00206     1.42048     0.91908                                   
 INPUT CARD>H     1.0    -0.00113     1.45205    -0.86666                                   
 INPUT CARD>H     1.0    -2.63543     1.42320     0.88609                                   
 INPUT CARD>H     1.0    -2.56490     1.46979    -0.90571                                   
 INPUT CARD>H     1.0    -3.42577     0.15504    -0.07805                                   
 INPUT CARD>H     1.0     3.42680     0.15494     0.04708                                   
 INPUT CARD>H     1.0     2.62080     1.42219    -0.90517                                   
 INPUT CARD>H     1.0     2.57897     1.46988     0.88709                                   
 INPUT CARD> $END                                                                           
 INPUT CARD>                                                                                
 INPUT CARD>                                                                                
 INPUT CARD>! Customizations after this line are persisted when using Do More Calculations  
  250000000 WORDS OF MEMORY AVAILABLE

     BASIS OPTIONS
     -------------
     GBASIS=N31          IGAUSS=       6      POLAR=POPN31  
     NDFUNC=       1     NFFUNC=       0     DIFFSP=       F
     NPFUNC=       0      DIFFS=       F     BASNAM=        


     RUN TITLE
     ---------
                                                                                 

 THE POINT GROUP OF THE MOLECULE IS C1      
 THE ORDER OF THE PRINCIPAL AXIS IS     0

 ATOM      ATOMIC                      COORDINATES (BOHR)
           CHARGE         X                   Y                   Z
 O           8.0    -2.5728808295       -2.2835637808        0.0718473821
 O           8.0     2.5723895008       -2.2851700479       -0.0705434711
 C           6.0     0.0004346370        1.5098721669        0.0288372186
 C           6.0    -2.4460613185        0.0276844857        0.0120942463
 C           6.0     2.4461558048        0.0260215269       -0.0070486779
 C           6.0    -4.8407976792        1.5518807756       -0.0411204375
 C           6.0     4.8407220901        1.5509926044        0.0080691300
 H           1.0     0.0038928355        2.6843179710        1.7368093608
 H           1.0    -0.0021353904        2.7439766205       -1.6377499245
 H           1.0    -4.9802405598        2.6894580257        1.6744673005
 H           1.0    -4.8469581859        2.7775003595       -1.7115437243
 H           1.0    -6.4737665970        0.2929831171       -0.1474931133
 H           1.0     6.4757130147        0.2927941445        0.0889682995
 H           1.0     4.9525938686        2.6875494025       -1.7105232723
 H           1.0     4.8735466306        2.7776704348        1.6763570264

          INTERNUCLEAR DISTANCES (ANGS.)
          ------------------------------

                1 O          2 O          3 C          4 C          5 C     

   1 O       0.0000000    2.7238026 *  2.4258006 *  1.2253079 *  2.9239683 *
   2 O       2.7238026 *  0.0000000    2.4265633 *  2.9244392 *  1.2253137 *
   3 C       2.4258006 *  2.4265633 *  0.0000000    1.5137155 *  1.5139143 *
   4 C       1.2253079 *  2.9244392 *  1.5137155 *  0.0000000    2.5888700 *
   5 C       2.9239683 *  1.2253137 *  1.5139143 *  2.5888700 *  0.0000000  
   6 C       2.3586614 *  4.4172568    2.5622339 *  1.5024132 *  3.9397628  
   7 C       4.4169471    2.3587097 *  2.5614860 *  3.9393575    1.5023148 *
   8 H       3.0897658    3.1108922    1.0968791 *  2.1189977 *  2.1214814 *
   9 H       3.1220389    3.1026502    1.0973933 *  2.1215324 *  2.1193926 *
  10 H       3.0442513    4.8740128    2.8451163 *  2.1345325 *  4.2687503  
  11 H       3.0840767    4.8317747    2.8067865 *  2.1362461 *  4.2223388  
  12 H       2.4766182 *  4.9778040    3.4872417    2.1376574 *  4.7229183  
  13 H       4.9786261    2.4768253 *  3.4867169    4.7234591    2.1376218 *
  14 H       4.8650238    3.0437052    2.8465693 *  4.2592159    2.1343489 *
  15 H       4.8395805    3.0846694    2.8035836 *  4.2304024    2.1363071 *

                6 C          7 C          8 H          9 H         10 H     

   1 O       2.3586614 *  4.4169471    3.0897658    3.1220389    3.0442513  
   2 O       4.4172568    2.3587097 *  3.1108922    3.1026502    4.8740128  
   3 C       2.5622339 *  2.5614860 *  1.0968791 *  1.0973933 *  2.8451163 *
   4 C       1.5024132 *  3.9393575    2.1189977 *  2.1215324 *  2.1345325 *
   5 C       3.9397628    1.5023148 *  2.1214814 *  2.1193926 *  4.2687503  
   6 C       0.0000000    5.1233061    2.7958630 *  2.7691179 *  1.0917951 *
   7 C       5.1233061    0.0000000    2.7834867 *  2.7793243 *  5.3056266  
   8 H       2.7958630 *  2.7834867 *  0.0000000    1.7860219 *  2.6376977 *
   9 H       2.7691179 *  2.7793243 *  1.7860219 *  0.0000000    3.1642537  
  10 H       1.0917951 *  5.3056266    2.6376977 *  3.1642537    0.0000000  
  11 H       1.0963673 *  5.2469342    3.1498530    2.5641287 *  1.7937927 *
  12 H       1.0925589 *  6.0248275    3.7875619    3.7459711    1.7783231 *
  13 H       6.0257847    1.0925689 *  3.7537740    3.7773164    6.2500443  
  14 H       5.2914329    1.0919322 *  3.1915028    2.6223828 *  5.5530683  
  15 H       5.2604790    1.0959209 *  2.5775820 *  3.1197553    5.2146090  

               11 H         12 H         13 H         14 H         15 H     

   1 O       3.0840767    2.4766182 *  4.9786261    4.8650238    4.8395805  
   2 O       4.8317747    4.9778040    2.4768253 *  3.0437052    3.0846694  
   3 C       2.8067865 *  3.4872417    3.4867169    2.8465693 *  2.8035836 *
   4 C       2.1362461 *  2.1376574 *  4.7234591    4.2592159    4.2304024  
   5 C       4.2223388    4.7229183    2.1376218 *  2.1343489 *  2.1363071 *
   6 C       1.0963673 *  1.0925589 *  6.0257847    5.2914329    5.2604790  
   7 C       5.2469342    6.0248275    1.0925689 *  1.0919322 *  1.0959209 *
   8 H       3.1498530    3.7875619    3.7537740    3.1915028    2.5775820 *
   9 H       2.5641287 *  3.7459711    3.7773164    2.6223828 *  3.1197553  
  10 H       1.7937927 *  1.7783231 *  6.2500443    5.5530683    5.2146090  
  11 H       0.0000000    1.7761435 *  6.2078264    5.1859185    5.4473416  
  12 H       1.7761435 *  0.0000000    6.8537124    6.2330414    6.2223148  
  13 H       6.2078264    6.8537124    0.0000000    1.7782966 *  1.7758096 *
  14 H       5.1859185    6.2330414    1.7782966 *  0.0000000    1.7933823 *
  15 H       5.4473416    6.2223148    1.7758096 *  1.7933823 *  0.0000000  

  * ... LESS THAN  3.000


     ATOMIC BASIS SET
     ----------------
 THE CONTRACTED PRIMITIVE FUNCTIONS HAVE BEEN UNNORMALIZED
 THE CONTRACTED BASIS FUNCTIONS ARE NOW NORMALIZED TO UNITY

  SHELL TYPE  PRIMITIVE        EXPONENT          CONTRACTION COEFFICIENT(S)

 O         

      1   S       1          5484.6716600    0.001831074430
      1   S       2           825.2349460    0.013950172200
      1   S       3           188.0469580    0.068445078098
      1   S       4            52.9645000    0.232714335992
      1   S       5            16.8975704    0.470192897984
      1   S       6             5.7996353    0.358520852987

      2   L       7            15.5396162   -0.110777549525    0.070874268231
      2   L       8             3.5999336   -0.148026262701    0.339752839147
      2   L       9             1.0137618    1.130767015354    0.727158577316

      3   L      10             0.2700058    1.000000000000    1.000000000000

      4   D      11             0.8000000    1.000000000000

 O         

      5   S      12          5484.6716600    0.001831074430
      5   S      13           825.2349460    0.013950172200
      5   S      14           188.0469580    0.068445078098
      5   S      15            52.9645000    0.232714335992
      5   S      16            16.8975704    0.470192897984
      5   S      17             5.7996353    0.358520852987

      6   L      18            15.5396162   -0.110777549525    0.070874268231
      6   L      19             3.5999336   -0.148026262701    0.339752839147
      6   L      20             1.0137618    1.130767015354    0.727158577316

      7   L      21             0.2700058    1.000000000000    1.000000000000

      8   D      22             0.8000000    1.000000000000

 C         

      9   S      23          3047.5248800    0.001834737132
      9   S      24           457.3695180    0.014037322813
      9   S      25           103.9486850    0.068842622264
      9   S      26            29.2101553    0.232184443216
      9   S      27             9.2866630    0.467941348435
      9   S      28             3.1639270    0.362311985337

     10   L      29             7.8682723   -0.119332419775    0.068999066591
     10   L      30             1.8812885   -0.160854151696    0.316423960957
     10   L      31             0.5442493    1.143456437840    0.744308290898

     11   L      32             0.1687145    1.000000000000    1.000000000000

     12   D      33             0.8000000    1.000000000000

 C         

     13   S      34          3047.5248800    0.001834737132
     13   S      35           457.3695180    0.014037322813
     13   S      36           103.9486850    0.068842622264
     13   S      37            29.2101553    0.232184443216
     13   S      38             9.2866630    0.467941348435
     13   S      39             3.1639270    0.362311985337

     14   L      40             7.8682723   -0.119332419775    0.068999066591
     14   L      41             1.8812885   -0.160854151696    0.316423960957
     14   L      42             0.5442493    1.143456437840    0.744308290898

     15   L      43             0.1687145    1.000000000000    1.000000000000

     16   D      44             0.8000000    1.000000000000

 C         

     17   S      45          3047.5248800    0.001834737132
     17   S      46           457.3695180    0.014037322813
     17   S      47           103.9486850    0.068842622264
     17   S      48            29.2101553    0.232184443216
     17   S      49             9.2866630    0.467941348435
     17   S      50             3.1639270    0.362311985337

     18   L      51             7.8682723   -0.119332419775    0.068999066591
     18   L      52             1.8812885   -0.160854151696    0.316423960957
     18   L      53             0.5442493    1.143456437840    0.744308290898

     19   L      54             0.1687145    1.000000000000    1.000000000000

     20   D      55             0.8000000    1.000000000000

 C         

     21   S      56          3047.5248800    0.001834737132
     21   S      57           457.3695180    0.014037322813
     21   S      58           103.9486850    0.068842622264
     21   S      59            29.2101553    0.232184443216
     21   S      60             9.2866630    0.467941348435
     21   S      61             3.1639270    0.362311985337

     22   L      62             7.8682723   -0.119332419775    0.068999066591
     22   L      63             1.8812885   -0.160854151696    0.316423960957
     22   L      64             0.5442493    1.143456437840    0.744308290898

     23   L      65             0.1687145    1.000000000000    1.000000000000

     24   D      66             0.8000000    1.000000000000

 C         

     25   S      67          3047.5248800    0.001834737132
     25   S      68           457.3695180    0.014037322813
     25   S      69           103.9486850    0.068842622264
     25   S      70            29.2101553    0.232184443216
     25   S      71             9.2866630    0.467941348435
     25   S      72             3.1639270    0.362311985337

     26   L      73             7.8682723   -0.119332419775    0.068999066591
     26   L      74             1.8812885   -0.160854151696    0.316423960957
     26   L      75             0.5442493    1.143456437840    0.744308290898

     27   L      76             0.1687145    1.000000000000    1.000000000000

     28   D      77             0.8000000    1.000000000000

 H         

     29   S      78            18.7311370    0.033494604338
     29   S      79             2.8253944    0.234726953484
     29   S      80             0.6401217    0.813757326146

     30   S      81             0.1612778    1.000000000000

 H         

     31   S      82            18.7311370    0.033494604338
     31   S      83             2.8253944    0.234726953484
     31   S      84             0.6401217    0.813757326146

     32   S      85             0.1612778    1.000000000000

 H         

     33   S      86            18.7311370    0.033494604338
     33   S      87             2.8253944    0.234726953484
     33   S      88             0.6401217    0.813757326146

     34   S      89             0.1612778    1.000000000000

 H         

     35   S      90            18.7311370    0.033494604338
     35   S      91             2.8253944    0.234726953484
     35   S      92             0.6401217    0.813757326146

     36   S      93             0.1612778    1.000000000000

 H         

     37   S      94            18.7311370    0.033494604338
     37   S      95             2.8253944    0.234726953484
     37   S      96             0.6401217    0.813757326146

     38   S      97             0.1612778    1.000000000000

 H         

     39   S      98            18.7311370    0.033494604338
     39   S      99             2.8253944    0.234726953484
     39   S     100             0.6401217    0.813757326146

     40   S     101             0.1612778    1.000000000000

 H         

     41   S     102            18.7311370    0.033494604338
     41   S     103             2.8253944    0.234726953484
     41   S     104             0.6401217    0.813757326146

     42   S     105             0.1612778    1.000000000000

 H         

     43   S     106            18.7311370    0.033494604338
     43   S     107             2.8253944    0.234726953484
     43   S     108             0.6401217    0.813757326146

     44   S     109             0.1612778    1.000000000000

 TOTAL NUMBER OF BASIS SET SHELLS             =   44
 NUMBER OF CARTESIAN GAUSSIAN BASIS FUNCTIONS =  121
 NUMBER OF ELECTRONS                          =   54
 CHARGE OF MOLECULE                           =    0
 SPIN MULTIPLICITY                            =    1
 NUMBER OF OCCUPIED ORBITALS (ALPHA)          =   27
 NUMBER OF OCCUPIED ORBITALS (BETA )          =   27
 TOTAL NUMBER OF ATOMS                        =   15
 THE NUCLEAR REPULSION ENERGY IS      292.7134538277

     $CONTRL OPTIONS
     ---------------
 SCFTYP=RHF          RUNTYP=OPTIMIZE     EXETYP=RUN     
 MPLEVL=       0     CITYP =NONE         CCTYP =NONE         VBTYP =NONE    
 DFTTYP=NONE         TDDFT =NONE    
 MULT  =       1     ICHARG=       0     NZVAR =       0     COORD =UNIQUE  
 PP    =NONE         RELWFN=NONE         LOCAL =NONE         NUMGRD=       F
 ISPHER=      -1     NOSYM =       0     MAXIT =     200     UNITS =ANGS    
 PLTORB=       F     MOLPLT=       F     AIMPAC=       F     FRIEND=        
 NPRINT=       7     IREST =       0     GEOM  =INPUT   
 NORMF =       0     NORMP =       0     ITOL  =      20     ICUT  =       9
 INTTYP=BEST         GRDTYP=BEST         QMTTOL= 1.0E-06

     $SYSTEM OPTIONS
     ---------------
  REPLICATED MEMORY=   250000000 WORDS (ON EVERY NODE).
 DISTRIBUTED MEMDDI=           0 MILLION WORDS IN AGGREGATE,
 MEMDDI DISTRIBUTED OVER   1 PROCESSORS IS           0 WORDS/PROCESSOR.
 TOTAL MEMORY REQUESTED ON EACH PROCESSOR=   250000000 WORDS.
 TIMLIM=        2879.00 MINUTES, OR       2.0 DAYS.
 PARALL= F  BALTYP=  DLB     KDIAG=    0  COREFL= F
 MXSEQ2=     300 MXSEQ3=     150  mem10=         0

          ----------------
          PROPERTIES INPUT
          ----------------

     MOMENTS            FIELD           POTENTIAL          DENSITY
 IEMOM =       1   IEFLD =       0   IEPOT =       0   IEDEN =       0
 WHERE =COMASS     WHERE =NUCLEI     WHERE =NUCLEI     WHERE =NUCLEI  
 OUTPUT=BOTH       OUTPUT=BOTH       OUTPUT=BOTH       OUTPUT=BOTH    
 IEMINT=       0   IEFINT=       0                     IEDINT=       0
                                                       MORB  =       0
          EXTRAPOLATION IN EFFECT
          SOSCF IN EFFECT
 ORBITAL PRINTING OPTION: NPREO=     1   121     2     1

     -------------------------------
     INTEGRAL TRANSFORMATION OPTIONS
     -------------------------------
     NWORD  =            0
     CUTOFF = 1.0E-09     MPTRAN =       0
     DIRTRF =       T     AOINTS =DUP     

          ----------------------
          INTEGRAL INPUT OPTIONS
          ----------------------
 NOPK  =       1 NORDER=       0 SCHWRZ=       T

     ------------------------------------------
     THE POINT GROUP IS C1 , NAXIS= 0, ORDER= 1
     ------------------------------------------

     DIMENSIONS OF THE SYMMETRY SUBSPACES ARE
 A   =  121

 ..... DONE SETTING UP THE RUN .....
 STEP CPU TIME =     0.01 TOTAL CPU TIME =          0.0 (      0.0 MIN)
 TOTAL WALL CLOCK TIME=          0.0 SECONDS, CPU UTILIZATION IS    33.33%


          -----------------------------
          STATIONARY POINT LOCATION RUN
          -----------------------------

 OBTAINING INITIAL HESSIAN, HESS=GUESS   
 CARTESIAN COORDINATE OPTIMIZATION USING BADGER'S RULE FORCE CONSTANT GUESS

          PARAMETERS CONTROLLING GEOMETRY SEARCH ARE
          METHOD =QA                  UPHESS =BFGS    
          NNEG   =         0          NFRZ   =         0
          NSTEP  =       999          IFOLOW =         1
          HESS   =GUESS               RESTAR =         F
          IHREP  =         0          HSSEND =         F
          NPRT   =         0          NPUN   =         0
          OPTTOL = 5.000E-04          RMIN   = 1.500E-03
          RMAX   = 1.000E-01          RLIM   = 7.000E-02
          DXMAX  = 3.000E-01          PURIFY =         F
          MOVIE  =         F          TRUPD  =         T
          TRMAX  = 5.000E-01          TRMIN  = 5.000E-02
          ITBMAT =         5          STPT   =         F
          STSTEP = 1.000E-02          PROJCT=          T

 BEGINNING GEOMETRY SEARCH POINT NSERCH=   0 ...

 COORDINATES OF ALL ATOMS ARE (ANGS)
   ATOM   CHARGE       X              Y              Z
 ------------------------------------------------------------
 O           8.0  -1.3615100000  -1.2084100000   0.0380200000
 O           8.0   1.3612500000  -1.2092600000  -0.0373300000
 C           6.0   0.0002300000   0.7989900000   0.0152600000
 C           6.0  -1.2944000000   0.0146500000   0.0064000000
 C           6.0   1.2944500000   0.0137700000  -0.0037300000
 C           6.0  -2.5616400000   0.8212200000  -0.0217600000
 C           6.0   2.5616000000   0.8207500000   0.0042700000
 H           1.0   0.0020600000   1.4204800000   0.9190800000
 H           1.0  -0.0011300000   1.4520500000  -0.8666600000
 H           1.0  -2.6354300000   1.4232000000   0.8860900000
 H           1.0  -2.5649000000   1.4697900000  -0.9057100000
 H           1.0  -3.4257700000   0.1550400000  -0.0780500000
 H           1.0   3.4268000000   0.1549400000   0.0470800000
 H           1.0   2.6208000000   1.4221900000  -0.9051700000
 H           1.0   2.5789700000   1.4698800000   0.8870900000

          ********************
          1 ELECTRON INTEGRALS
          ********************
 ...... END OF ONE-ELECTRON INTEGRALS ......
 STEP CPU TIME =     0.02 TOTAL CPU TIME =          0.0 (      0.0 MIN)
 TOTAL WALL CLOCK TIME=          0.1 SECONDS, CPU UTILIZATION IS    50.00%

          -------------
          GUESS OPTIONS
          -------------
          GUESS =HUCKEL            NORB  =       0          NORDER=       0
          MIX   =       F          PRTMO =       F          PUNMO =       F
          TOLZ  = 1.0E-08          TOLE  = 1.0E-05
          SYMDEN=       F          PURIFY=       F

 INITIAL GUESS ORBITALS GENERATED BY HUCKEL   ROUTINE.
 HUCKEL GUESS REQUIRES    124942 WORDS.

 SYMMETRIES FOR INITIAL GUESS ORBITALS FOLLOW.   BOTH SET(S).
    27 ORBITALS ARE OCCUPIED (    7 CORE ORBITALS).
     8=A        9=A       10=A       11=A       12=A       13=A       14=A   
    15=A       16=A       17=A       18=A       19=A       20=A       21=A   
    22=A       23=A       24=A       25=A       26=A       27=A       28=A   
    29=A       30=A       31=A       32=A       33=A       34=A       35=A   
    36=A       37=A   
 ...... END OF INITIAL ORBITAL SELECTION ......
 STEP CPU TIME =     0.01 TOTAL CPU TIME =          0.0 (      0.0 MIN)
 TOTAL WALL CLOCK TIME=          0.1 SECONDS, CPU UTILIZATION IS    50.00%

                    ----------------------
                    AO INTEGRAL TECHNOLOGY
                    ----------------------
     S,P,L SHELL ROTATED AXIS INTEGRALS, REPROGRAMMED BY
        KAZUYA ISHIMURA (IMS) AND JOSE SIERRA (SYNSTAR).
     S,P,D,L SHELL ROTATED AXIS INTEGRALS PROGRAMMED BY
        KAZUYA ISHIMURA (INSTITUTE FOR MOLECULAR SCIENCE).
     S,P,D,F,G SHELL TO TOTAL QUARTET ANGULAR MOMENTUM SUM 5,
        ERIC PROGRAM BY GRAHAM FLETCHER (ELORET AND NASA ADVANCED
        SUPERCOMPUTING DIVISION, AMES RESEARCH CENTER).
     S,P,D,F,G,L SHELL GENERAL RYS QUADRATURE PROGRAMMED BY
        MICHEL DUPUIS (PACIFIC NORTHWEST NATIONAL LABORATORY).

          --------------------
          2 ELECTRON INTEGRALS
          --------------------

 DIRECT SCF METHOD SKIPS INTEGRAL STORAGE ON DISK.
 DIRECT TRANSFORMATION SKIPS AO INTEGRAL STORAGE ON DISK.
  ...... END OF TWO-ELECTRON INTEGRALS .....
 STEP CPU TIME =     0.00 TOTAL CPU TIME =          0.0 (      0.0 MIN)
 TOTAL WALL CLOCK TIME=          0.1 SECONDS, CPU UTILIZATION IS    44.44%

          --------------------------
                 RHF SCF CALCULATION
          --------------------------

     NUCLEAR ENERGY =       292.7134538277
     MAXIT =  200     NPUNCH=    2
     EXTRAP=T  DAMP=F  SHIFT=F  RSTRCT=F  DIIS=F  DEM=F  SOSCF=T
     DENSITY MATRIX CONV=  2.00E-05
     SOSCF WILL OPTIMIZE    2538 ORBITAL ROTATIONS, SOGTOL=   0.250
     MEMORY REQUIRED FOR RHF ITERS=    161709 WORDS.

 DIRECT SCF CALCULATION, SCHWRZ=T   FDIFF=T,  DIRTHR=  0.00E+00 NITDIR=10
 SCHWARZ INEQUALITY OVERHEAD:      7275 INTEGRALS, T=        0.00

                                                                                   NONZERO     BLOCKS
 ITER EX DEM     TOTAL ENERGY        E CHANGE  DENSITY CHANGE     ORB. GRAD      INTEGRALS    SKIPPED
   1  0  0     -342.6406159958  -342.6406159958   0.296650099   0.000000000       20190033     144087
          ---------------START SECOND ORDER SCF---------------
   2  1  0     -343.5071210864    -0.8665050906   0.225057184   0.126898271       20187473     148527
   3  2  0     -343.5390289114    -0.0319078251   0.113675165   0.107314058       20135856     155918
   4  3  0     -343.7069402609    -0.1679113495   0.034670726   0.008534355       20060989     163074
   5  4  0     -343.7094639428    -0.0025236819   0.006081479   0.003081742       19859977     176528
   6  5  0     -343.7096287388    -0.0001647960   0.001870766   0.000648372       19549874     190030
   7  6  0     -343.7096414429    -0.0000127041   0.000332951   0.000159891       19124027     205774
   8  7  0     -343.7096420768    -0.0000006339   0.000107321   0.000036328       18352682     229648
   9  8  0     -343.7096421614    -0.0000000847   0.000057029   0.000022863       17641221     243698
  10  9  0     -343.7096421716    -0.0000000101   0.000015465   0.000005398       16646960     263760
  11 10  0     -343.7096421731    -0.0000000015   0.000003037   0.000001519       15804158     281705

          -----------------
          DENSITY CONVERGED
          -----------------
     TIME TO FORM FOCK OPERATORS=       5.6 SECONDS (       0.5 SEC/ITER)
     FOCK TIME ON FIRST ITERATION=       0.6, LAST ITERATION=       0.4
     TIME TO SOLVE SCF EQUATIONS=       0.0 SECONDS (       0.0 SEC/ITER)

 FINAL RHF ENERGY IS     -343.7096421731 AFTER  11 ITERATIONS

          ------------
          EIGENVECTORS
          ------------

                      1          2          3          4          5
                  -20.5539   -20.5539   -11.3395   -11.3394   -11.2650
                     A          A          A          A          A   
    1  O  1  S   -0.037010   0.994010  -0.000028  -0.000251   0.000008
    2  O  1  S   -0.000717   0.020903  -0.000226   0.000711  -0.000019
    3  O  1  X    0.000021   0.000062  -0.000023  -0.000002  -0.000006
    4  O  1  Y   -0.000053   0.001528  -0.000047   0.000285  -0.000014
    5  O  1  Z    0.000000  -0.000038   0.000002  -0.000009  -0.000003
    6  O  1  S   -0.000462   0.004578   0.001272  -0.003539  -0.000406
    7  O  1  X   -0.000111   0.000002   0.000017   0.000026  -0.000549
    8  O  1  Y   -0.000029  -0.000023   0.000413  -0.001802  -0.000036
    9  O  1  Z    0.000004  -0.000002  -0.000012   0.000061   0.000004
   10  O  1 XX    0.000175  -0.003871  -0.000159   0.000227   0.000035
   11  O  1 YY    0.000197  -0.003608  -0.000096   0.000002   0.000093
   12  O  1 ZZ    0.000217  -0.004197  -0.000180   0.000504  -0.000088
   13  O  1 XY   -0.000014   0.000004   0.000010   0.000011  -0.000095
   14  O  1 XZ    0.000002   0.000005   0.000000  -0.000005   0.000008
   15  O  1 YZ    0.000001  -0.000018  -0.000002   0.000020  -0.000006
   16  O  2  S    0.994009   0.037043  -0.000245  -0.000058   0.000009
   17  O  2  S    0.020899   0.000840   0.000734  -0.000138  -0.000016
   18  O  2  X   -0.000060  -0.000026  -0.000000   0.000023   0.000005
   19  O  2  Y    0.001528   0.000061   0.000289  -0.000012  -0.000013
   20  O  2  Z    0.000040   0.000003   0.000009   0.000001  -0.000000
   21  O  2  S    0.004600  -0.000121  -0.003673   0.000831  -0.000416
   22  O  2  X   -0.000010   0.000111  -0.000025  -0.000019   0.000551
   23  O  2  Y   -0.000021  -0.000031  -0.001841   0.000191  -0.000039
   24  O  2  Z    0.000002  -0.000004  -0.000058  -0.000002  -0.000005
   25  O  2 XX   -0.003873  -0.000114   0.000245  -0.000131   0.000037
   26  O  2 YY   -0.003612  -0.000072   0.000014  -0.000095   0.000094
   27  O  2 ZZ   -0.004202  -0.000096   0.000522  -0.000117  -0.000087
   28  O  2 XY   -0.000004   0.000013  -0.000010  -0.000011   0.000096
   29  O  2 XZ   -0.000002   0.000002   0.000001  -0.000000   0.000003
   30  O  2 YZ    0.000018   0.000001  -0.000018  -0.000000   0.000005
   31  C  3  S    0.000004   0.000004   0.003861   0.004369   0.995824
   32  C  3  S    0.000025   0.000027   0.000287   0.000324   0.029310
   33  C  3  X    0.000003  -0.000003  -0.000125   0.000111  -0.000000
   34  C  3  Y    0.000020   0.000021   0.000119   0.000135   0.000028
   35  C  3  Z    0.000000  -0.000001   0.000001   0.000009   0.000002
   36  C  3  S   -0.000345  -0.000372   0.003075   0.003467  -0.020074
   37  C  3  X   -0.000215   0.000200   0.002800  -0.002479   0.000002
   38  C  3  Y    0.000109   0.000118  -0.000724  -0.000810   0.001914
   39  C  3  Z    0.000003   0.000004   0.000004  -0.000089   0.000022
   40  C  3 XX    0.000042   0.000044  -0.000394  -0.000445  -0.001601
   41  C  3 YY   -0.000047  -0.000051  -0.000300  -0.000338  -0.001808
   42  C  3 ZZ   -0.000010  -0.000011  -0.000045  -0.000051  -0.001598
   43  C  3 XY    0.000024  -0.000022   0.000246  -0.000218   0.000000
   44  C  3 XZ    0.000001   0.000002   0.000005  -0.000001   0.000001
   45  C  3 YZ   -0.000001   0.000000  -0.000005  -0.000003  -0.000002
   46  C  4  S    0.000000  -0.000009  -0.060570   0.993994  -0.004417
   47  C  4  S   -0.000018   0.000442  -0.001731   0.026662  -0.000027
   48  C  4  X   -0.000008   0.000003  -0.000021   0.000049   0.000030
   49  C  4  Y   -0.000006   0.000042   0.000065  -0.000356   0.000057
   50  C  4  Z   -0.000001  -0.000002  -0.000001   0.000016  -0.000001
   51  C  4  S    0.000080   0.000024   0.000621  -0.009700   0.004492
   52  C  4  X    0.000153   0.000085   0.000230  -0.000657   0.003437
   53  C  4  Y   -0.000146   0.000739   0.001086  -0.004738   0.000575
   54  C  4  Z    0.000004  -0.000013  -0.000021   0.000089   0.000027
   55  C  4 XX    0.000007  -0.000054   0.000095  -0.001656  -0.000357
   56  C  4 YY    0.000011  -0.000765   0.000038  -0.000701  -0.000284
   57  C  4 ZZ    0.000003  -0.000046   0.000094  -0.002239  -0.000128
   58  C  4 XY   -0.000022  -0.000052   0.000028   0.000072  -0.000208
   59  C  4 XZ    0.000000   0.000001  -0.000000   0.000007   0.000000
   60  C  4 YZ   -0.000000   0.000021   0.000005  -0.000040  -0.000004
   61  C  5  S   -0.000009  -0.000001   0.993997   0.060521  -0.004410
   62  C  5  S    0.000442   0.000015   0.026675   0.001518  -0.000026
   63  C  5  X   -0.000004   0.000008  -0.000051   0.000016  -0.000030
   64  C  5  Y    0.000043  -0.000003  -0.000361   0.000021   0.000057
   65  C  5  Z    0.000001   0.000000  -0.000013   0.000002   0.000001
   66  C  5  S    0.000018   0.000082  -0.009705  -0.000561   0.004493
   67  C  5  X   -0.000073  -0.000158   0.000681  -0.000155  -0.003437
   68  C  5  Y    0.000748  -0.000091  -0.004840   0.000500   0.000570
   69  C  5  Z    0.000017  -0.000003  -0.000120   0.000033   0.000033
   70  C  5 XX   -0.000054   0.000003  -0.001655  -0.000107  -0.000357
   71  C  5 YY   -0.000764  -0.000046  -0.000699  -0.000047  -0.000284
   72  C  5 ZZ   -0.000046  -0.000001  -0.002233  -0.000178  -0.000128
   73  C  5 XY    0.000050   0.000026  -0.000068  -0.000037   0.000209
   74  C  5 XZ    0.000001   0.000001  -0.000006  -0.000003   0.000006
   75  C  5 YZ   -0.000023  -0.000002   0.000045   0.000005  -0.000002
   76  C  6  S    0.000001  -0.000002  -0.000216   0.003201  -0.000563
   77  C  6  S    0.000001   0.000015  -0.000099   0.000228  -0.000303
   78  C  6  X    0.000006  -0.000015  -0.000036  -0.000027  -0.000070
   79  C  6  Y   -0.000001   0.000031  -0.000033   0.000119  -0.000053
   80  C  6  Z    0.000001  -0.000001  -0.000003   0.000005  -0.000002
   81  C  6  S    0.000088  -0.000136   0.000053   0.003099   0.001682
   82  C  6  X    0.000017  -0.000176   0.000059   0.001756   0.000447
   83  C  6  Y   -0.000036  -0.000005   0.000090  -0.000367  -0.000199
   84  C  6  Z   -0.000002  -0.000005   0.000019  -0.000017   0.000027
   85  C  6 XX   -0.000002   0.000003  -0.000009  -0.000308  -0.000053
   86  C  6 YY    0.000004  -0.000051   0.000002  -0.000369  -0.000004
   87  C  6 ZZ    0.000003  -0.000026  -0.000033  -0.000034  -0.000112
   88  C  6 XY    0.000001   0.000031  -0.000027   0.000244  -0.000012
   89  C  6 XZ   -0.000000  -0.000000   0.000001  -0.000010   0.000001
   90  C  6 YZ   -0.000000   0.000001  -0.000000   0.000004  -0.000003
   91  C  7  S   -0.000002   0.000001   0.003201   0.000174  -0.000562
   92  C  7  S    0.000015   0.000002   0.000238  -0.000072  -0.000303
   93  C  7  X    0.000016  -0.000005   0.000022   0.000039   0.000070
   94  C  7  Y    0.000031   0.000001   0.000122  -0.000018  -0.000052
   95  C  7  Z    0.000001  -0.000000  -0.000006   0.000001   0.000003
   96  C  7  S   -0.000142   0.000077   0.003072   0.000435   0.001684
   97  C  7  X    0.000177  -0.000003  -0.001735  -0.000274  -0.000448
   98  C  7  Y   -0.000002  -0.000036  -0.000375   0.000043  -0.000199
   99  C  7  Z    0.000001   0.000003   0.000058  -0.000015  -0.000031
  100  C  7 XX    0.000003  -0.000001  -0.000305  -0.000046  -0.000053
  101  C  7 YY   -0.000051   0.000001  -0.000367  -0.000043  -0.000004
  102  C  7 ZZ   -0.000026   0.000001  -0.000029  -0.000037  -0.000112
  103  C  7 XY   -0.000030  -0.000003  -0.000245  -0.000002   0.000011
  104  C  7 XZ   -0.000001  -0.000000  -0.000006  -0.000001  -0.000001
  105  C  7 YZ   -0.000001  -0.000000  -0.000001   0.000001   0.000003
  106  H  8  S    0.000015   0.000016  -0.000120  -0.000126   0.000287
  107  H  8  S   -0.000033  -0.000035   0.000276   0.000351   0.002738
  108  H  9  S    0.000014   0.000015  -0.000110  -0.000134   0.000286
  109  H  9  S   -0.000030  -0.000034   0.000281   0.000277   0.002731
  110  H 10  S   -0.000000   0.000013  -0.000020  -0.000133  -0.000047
  111  H 10  S    0.000007  -0.000025  -0.000089   0.000209  -0.000292
  112  H 11  S   -0.000001   0.000012  -0.000016  -0.000134  -0.000050
  113  H 11  S    0.000006  -0.000024  -0.000079   0.000136  -0.000284
  114  H 12  S   -0.000003   0.000003   0.000002  -0.000049  -0.000055
  115  H 12  S   -0.000016  -0.000080   0.000097   0.000170   0.000121
  116  H 13  S    0.000003  -0.000002  -0.000049  -0.000004  -0.000055
  117  H 13  S   -0.000078  -0.000021   0.000156   0.000116   0.000122
  118  H 14  S    0.000013   0.000001  -0.000130  -0.000034  -0.000046
  119  H 14  S   -0.000026   0.000006   0.000227  -0.000067  -0.000304
  120  H 15  S    0.000012   0.000000  -0.000130  -0.000034  -0.000050
  121  H 15  S   -0.000024   0.000003   0.000133  -0.000056  -0.000271

                      6          7          8          9         10
                  -11.2397   -11.2396    -1.3836    -1.3688    -1.0806
                     A          A          A          A          A   
    1  O  1  S   -0.000006  -0.000017  -0.134481  -0.138829   0.051316
    2  O  1  S   -0.000106  -0.000071   0.296954   0.304930  -0.117637
    3  O  1  X    0.000019   0.000000   0.006888   0.000806   0.007559
    4  O  1  Y   -0.000031  -0.000007   0.093285   0.095471   0.005185
    5  O  1  Z   -0.000002   0.000001  -0.002328  -0.002302   0.000239
    6  O  1  S   -0.000049   0.000320   0.275218   0.294368  -0.114562
    7  O  1  X    0.000347  -0.000084   0.001928  -0.001679   0.003982
    8  O  1  Y    0.000102   0.000089   0.038991   0.042968   0.005057
    9  O  1  Z    0.000016  -0.000008  -0.000917  -0.001011  -0.000149
   10  O  1 XX    0.000012  -0.000041  -0.001912  -0.003528  -0.001555
   11  O  1 YY    0.000065  -0.000031   0.012841   0.012765  -0.001400
   12  O  1 ZZ   -0.000133  -0.000070  -0.001581  -0.002538  -0.000128
   13  O  1 XY    0.000034  -0.000016   0.001169   0.000776   0.001033
   14  O  1 XZ   -0.000002   0.000000  -0.000016   0.000018  -0.000051
   15  O  1 YZ   -0.000003  -0.000002  -0.000419  -0.000447   0.000069
   16  O  2  S   -0.000017  -0.000007  -0.134575   0.138749   0.051338
   17  O  2  S   -0.000069  -0.000108   0.297161  -0.304753  -0.117702
   18  O  2  X    0.000000  -0.000019  -0.006858   0.000771  -0.007517
   19  O  2  Y   -0.000006  -0.000031   0.093343  -0.095403   0.005194
   20  O  2  Z   -0.000000   0.000002   0.002502  -0.002466  -0.000031
   21  O  2  S    0.000325  -0.000043   0.275436  -0.294227  -0.114563
   22  O  2  X    0.000094  -0.000344  -0.001912  -0.001695  -0.003971
   23  O  2  Y    0.000088   0.000103   0.039021  -0.042948   0.005078
   24  O  2  Z    0.000000  -0.000007   0.001027  -0.001007   0.000191
   25  O  2 XX   -0.000042   0.000011  -0.001918   0.003529  -0.001561
   26  O  2 YY   -0.000033   0.000064   0.012847  -0.012756  -0.001406
   27  O  2 ZZ   -0.000066  -0.000135  -0.001583   0.002537  -0.000130
   28  O  2 XY    0.000017  -0.000034  -0.001165   0.000770  -0.001031
   29  O  2 XZ    0.000001  -0.000005  -0.000008  -0.000019  -0.000021
   30  O  2 YZ    0.000000   0.000004   0.000456  -0.000467  -0.000052
   31  C  3  S    0.000448   0.000459  -0.026428  -0.000026  -0.147039
   32  C  3  S   -0.000259  -0.000267   0.048736   0.000056   0.273671
   33  C  3  X    0.000122  -0.000118  -0.000018  -0.028611   0.000040
   34  C  3  Y   -0.000072  -0.000074  -0.025734  -0.000018  -0.008050
   35  C  3  Z    0.000000  -0.000002  -0.000313   0.000340  -0.000501
   36  C  3  S    0.001040   0.001066   0.017259   0.000027   0.251284
   37  C  3  X   -0.001281   0.001246  -0.000023   0.021795   0.000022
   38  C  3  Y    0.000261   0.000269  -0.009450  -0.000022   0.001357
   39  C  3  Z    0.000011   0.000004   0.000209   0.000755  -0.000091
   40  C  3 XX   -0.000032  -0.000032   0.005428   0.000012   0.009041
   41  C  3 YY   -0.000046  -0.000047   0.004218  -0.000003   0.002145
   42  C  3 ZZ   -0.000087  -0.000089  -0.000570  -0.000000   0.007053
   43  C  3 XY    0.000070  -0.000068  -0.000000   0.006983  -0.000008
   44  C  3 XZ    0.000002  -0.000003  -0.000110   0.000062  -0.000001
   45  C  3 YZ   -0.000003   0.000001   0.000095  -0.000039  -0.000057
   46  C  4  S   -0.003501  -0.000077  -0.082851  -0.080396  -0.062121
   47  C  4  S    0.000054  -0.000103   0.157623   0.151799   0.127169
   48  C  4  X    0.000052  -0.000030  -0.000915  -0.013022   0.043201
   49  C  4  Y    0.000086   0.000015  -0.112827  -0.120584   0.131106
   50  C  4  Z   -0.000002  -0.000002   0.003043   0.003211  -0.001892
   51  C  4  S    0.003315   0.000574   0.053184   0.061910   0.079926
   52  C  4  X   -0.002794   0.000802   0.000193   0.004395   0.000094
   53  C  4  Y    0.000571   0.000261   0.023303   0.035130   0.036327
   54  C  4  Z   -0.000061   0.000010  -0.000601  -0.000667  -0.000455
   55  C  4 XX   -0.000406  -0.000006  -0.009330  -0.011956   0.016432
   56  C  4 YY   -0.000285  -0.000039   0.020800   0.021121  -0.005644
   57  C  4 ZZ   -0.000115  -0.000056  -0.011660  -0.011620  -0.004610
   58  C  4 XY    0.000152   0.000024   0.002018   0.001781   0.003536
   59  C  4 XZ   -0.000008   0.000000  -0.000043  -0.000030   0.000304
   60  C  4 YZ    0.000005   0.000000  -0.000944  -0.000987   0.000188
   61  C  5  S    0.000023  -0.003500  -0.082903   0.080335  -0.062203
   62  C  5  S   -0.000105   0.000051   0.157721  -0.151684   0.127335
   63  C  5  X    0.000032  -0.000051   0.000906  -0.013012  -0.043026
   64  C  5  Y    0.000013   0.000086  -0.112901   0.120517   0.131268
   65  C  5  Z   -0.000002   0.000002  -0.003141   0.003472   0.002967
   66  C  5  S    0.000476   0.003333   0.053234  -0.061858   0.080023
   67  C  5  X   -0.000879   0.002768  -0.000203   0.004391  -0.000063
   68  C  5  Y    0.000246   0.000578   0.023351  -0.035131   0.036397
   69  C  5  Z    0.000018   0.000006   0.000432  -0.001043   0.000624
   70  C  5 XX    0.000005  -0.000406  -0.009342   0.011956   0.016436
   71  C  5 YY   -0.000031  -0.000286   0.020813  -0.021106  -0.005630
   72  C  5 ZZ   -0.000052  -0.000117  -0.011666   0.011611  -0.004620
   73  C  5 XY   -0.000020  -0.000153  -0.002012   0.001770  -0.003528
   74  C  5 XZ    0.000000  -0.000001  -0.000070   0.000047  -0.000157
   75  C  5 YZ   -0.000000  -0.000004   0.001012  -0.001045  -0.000103
   76  C  6  S    0.995612   0.014124  -0.013696  -0.014183  -0.061265
   77  C  6  S    0.028854   0.000350   0.026419   0.026810   0.115020
   78  C  6  X    0.000263  -0.000018   0.014706   0.014231   0.035586
   79  C  6  Y    0.000084  -0.000014  -0.014113  -0.014936  -0.003734
   80  C  6  Z    0.000012  -0.000001   0.000461   0.000477   0.000620
   81  C  6  S   -0.015990   0.000164   0.005273   0.004301   0.090499
   82  C  6  X   -0.001104   0.000193  -0.004899  -0.005610   0.001837
   83  C  6  Y    0.000587  -0.000140  -0.004322  -0.005373   0.001674
   84  C  6  Z   -0.000022   0.000011   0.000040   0.000082  -0.000185
   85  C  6 XX   -0.001874  -0.000040   0.002987   0.002819   0.005210
   86  C  6 YY   -0.001910  -0.000021   0.002260   0.002577   0.001149
   87  C  6 ZZ   -0.001863  -0.000049  -0.000226  -0.000395   0.002544
   88  C  6 XY    0.000033  -0.000018  -0.003337  -0.003490  -0.001553
   89  C  6 XZ   -0.000000   0.000000   0.000136   0.000145   0.000016
   90  C  6 YZ    0.000009   0.000000  -0.000048  -0.000051  -0.000028
   91  C  7  S   -0.014147   0.995611  -0.013708   0.014175  -0.061447
   92  C  7  S   -0.000470   0.028854   0.026440  -0.026794   0.115355
   93  C  7  X    0.000025  -0.000263  -0.014717   0.014222  -0.035666
   94  C  7  Y   -0.000017   0.000084  -0.014129   0.014932  -0.003756
   95  C  7  Z    0.000002  -0.000007  -0.000236   0.000241   0.000016
   96  C  7  S    0.000617  -0.015980   0.005273  -0.004286   0.090779
   97  C  7  X   -0.000225   0.001098   0.004898  -0.005604  -0.001843
   98  C  7  Y   -0.000157   0.000582  -0.004324   0.005372   0.001686
   99  C  7  Z   -0.000016   0.000008  -0.000031   0.000312   0.000181
  100  C  7 XX    0.000013  -0.001875   0.002988  -0.002818   0.005218
  101  C  7 YY    0.000033  -0.001910   0.002265  -0.002578   0.001157
  102  C  7 ZZ    0.000004  -0.001864  -0.000230   0.000398   0.002550
  103  C  7 XY    0.000019  -0.000033   0.003341  -0.003489   0.001559
  104  C  7 XZ    0.000001   0.000000   0.000074  -0.000093  -0.000029
  105  C  7 YZ    0.000000  -0.000008  -0.000006   0.000003   0.000007
  106  H  8  S   -0.000082  -0.000080   0.009031   0.000005   0.091800
  107  H  8  S   -0.000284  -0.000312   0.000135  -0.000142   0.015382
  108  H  9  S   -0.000082  -0.000088   0.009018   0.000014   0.091974
  109  H  9  S   -0.000290  -0.000277   0.000247   0.000147   0.015507
  110  H 10  S    0.000150  -0.000027   0.004633   0.004728   0.037955
  111  H 10  S    0.002630   0.000070   0.000748   0.000945   0.007533
  112  H 11  S    0.000162  -0.000025   0.004566   0.004631   0.038195
  113  H 11  S    0.002611   0.000077   0.000718   0.000994   0.007841
  114  H 12  S    0.000192  -0.000008   0.006435   0.006842   0.027740
  115  H 12  S    0.002416   0.000086  -0.001092  -0.000573   0.001765
  116  H 13  S   -0.000013   0.000192   0.006439  -0.006838   0.027830
  117  H 13  S    0.000018   0.002417  -0.001087   0.000569   0.001784
  118  H 14  S   -0.000031   0.000150   0.004642  -0.004722   0.038015
  119  H 14  S   -0.000009   0.002634   0.000788  -0.000868   0.007582
  120  H 15  S   -0.000030   0.000161   0.004565  -0.004630   0.038363
  121  H 15  S    0.000008   0.002610   0.000683  -0.001084   0.007818

                     11         12         13         14         15
                   -1.0212    -0.9761    -0.7891    -0.7206    -0.6634
                     A          A          A          A          A   
    1  O  1  S    0.040825  -0.004353  -0.044616   0.063546  -0.007501
    2  O  1  S   -0.095189   0.010577   0.105747  -0.147245   0.014765
    3  O  1  X   -0.016359   0.045325  -0.042484  -0.002028  -0.225222
    4  O  1  Y    0.013789  -0.005305  -0.104397   0.229874  -0.006270
    5  O  1  Z   -0.000458   0.000725   0.001504  -0.006944  -0.001197
    6  O  1  S   -0.092618   0.010295   0.132770  -0.221060   0.033099
    7  O  1  X   -0.006231   0.021557  -0.024926  -0.001241  -0.133455
    8  O  1  Y    0.009132  -0.002541  -0.056118   0.126964  -0.001649
    9  O  1  Z   -0.000520   0.000409   0.000999  -0.004014  -0.000781
   10  O  1 XX   -0.001736   0.000750   0.003808  -0.006100  -0.002063
   11  O  1 YY   -0.000399  -0.000380  -0.005970   0.016537  -0.001056
   12  O  1 ZZ   -0.000793   0.000409   0.002285  -0.003271  -0.000881
   13  O  1 XY   -0.002129   0.005107  -0.003787  -0.000137  -0.014613
   14  O  1 XZ    0.000016  -0.000124   0.000153  -0.000023   0.000353
   15  O  1 YZ   -0.000034   0.000097   0.000108  -0.000703  -0.000040
   16  O  2  S   -0.040745  -0.004363   0.044627   0.063563  -0.007528
   17  O  2  S    0.095012   0.010590  -0.105780  -0.147285   0.014826
   18  O  2  X   -0.016390  -0.045280  -0.042457   0.002179   0.225169
   19  O  2  Y   -0.013770  -0.005318   0.104406   0.229990  -0.006404
   20  O  2  Z   -0.000216   0.000127   0.002858   0.005829  -0.002409
   21  O  2  S    0.092409   0.010369  -0.132767  -0.221122   0.033220
   22  O  2  X   -0.006252  -0.021538  -0.024909   0.001326   0.133424
   23  O  2  Y   -0.009127  -0.002533   0.056134   0.127022  -0.001716
   24  O  2  Z   -0.000386  -0.000037   0.001684   0.003327  -0.001398
   25  O  2 XX    0.001735   0.000743  -0.003813  -0.006102  -0.002051
   26  O  2 YY    0.000400  -0.000385   0.005963   0.016547  -0.001062
   27  O  2 ZZ    0.000796   0.000410  -0.002281  -0.003277  -0.000890
   28  O  2 XY   -0.002133  -0.005104  -0.003784   0.000151   0.014608
   29  O  2 XZ   -0.000045  -0.000135  -0.000118   0.000037   0.000388
   30  O  2 YZ   -0.000005  -0.000005   0.000242   0.000583  -0.000203
   31  C  3  S   -0.000129  -0.104135  -0.000001   0.046518  -0.008516
   32  C  3  S    0.000247   0.190754  -0.000010  -0.081995   0.007618
   33  C  3  X   -0.078958  -0.000045   0.249990  -0.000184   0.000107
   34  C  3  Y    0.000022  -0.009603  -0.000082  -0.185183   0.239798
   35  C  3  Z   -0.000402   0.000435  -0.001163  -0.004125   0.000652
   36  C  3  S    0.000243   0.239294   0.000003  -0.147984   0.037690
   37  C  3  X   -0.006732  -0.000050   0.077494  -0.000099   0.000049
   38  C  3  Y   -0.000016  -0.007005  -0.000035  -0.093118   0.121625
   39  C  3  Z   -0.000283  -0.000051  -0.000595  -0.001789   0.000084
   40  C  3 XX    0.000010   0.000695  -0.000014   0.014892  -0.010671
   41  C  3 YY    0.000001   0.003956   0.000017  -0.001971  -0.002143
   42  C  3 ZZ    0.000006   0.006266   0.000001  -0.017094   0.015853
   43  C  3 XY    0.004915   0.000004  -0.019622   0.000001   0.000006
   44  C  3 XZ    0.000137  -0.000064  -0.000314  -0.000073   0.000050
   45  C  3 YZ   -0.000008   0.000007  -0.000023   0.000282  -0.000608
   46  C  4  S   -0.057188   0.004303   0.098143  -0.087545  -0.005753
   47  C  4  S    0.117198  -0.008734  -0.208736   0.195495   0.010476
   48  C  4  X   -0.063648   0.150135  -0.083954  -0.031802  -0.220182
   49  C  4  Y    0.112122  -0.013682  -0.085760  -0.040305   0.040327
   50  C  4  Z   -0.002991   0.002350  -0.000677  -0.000925  -0.002163
   51  C  4  S    0.083025  -0.009100  -0.197585   0.160830   0.018470
   52  C  4  X   -0.002024   0.007579  -0.018316  -0.010685  -0.075081
   53  C  4  Y    0.036456  -0.004710  -0.059506   0.037424   0.015946
   54  C  4  Z   -0.000439   0.000136   0.000518  -0.001213  -0.000374
   55  C  4 XX    0.011727  -0.000614  -0.002537   0.001623  -0.003025
   56  C  4 YY   -0.003643  -0.000020  -0.001751   0.000145   0.002193
   57  C  4 ZZ   -0.004260   0.000315   0.007026  -0.006861  -0.000125
   58  C  4 XY   -0.007224   0.013303  -0.006161  -0.003377   0.006410
   59  C  4 XZ    0.000351  -0.000165  -0.000182   0.000052  -0.000129
   60  C  4 YZ    0.000004   0.000191   0.000090  -0.000287  -0.000068
   61  C  5  S    0.057091   0.004294  -0.098185  -0.087525  -0.005703
   62  C  5  S   -0.116999  -0.008725   0.208826   0.195459   0.010361
   63  C  5  X   -0.063824  -0.150031  -0.083870   0.031941   0.220161
   64  C  5  Y   -0.111958  -0.013687   0.085792  -0.040353   0.040417
   65  C  5  Z   -0.002210   0.000470   0.002005  -0.001596  -0.001473
   66  C  5  S   -0.082896  -0.009045   0.197664   0.160795   0.018353
   67  C  5  X   -0.002013  -0.007590  -0.018313   0.010714   0.075085
   68  C  5  Y   -0.036414  -0.004651   0.059553   0.037423   0.015962
   69  C  5  Z   -0.000569   0.000070   0.001411   0.000295  -0.000494
   70  C  5 XX   -0.011701  -0.000617   0.002530   0.001625  -0.003021
   71  C  5 YY    0.003626  -0.000017   0.001763   0.000140   0.002183
   72  C  5 ZZ    0.004261   0.000320  -0.007031  -0.006858  -0.000121
   73  C  5 XY   -0.007240  -0.013306  -0.006157   0.003379  -0.006395
   74  C  5 XZ   -0.000017  -0.000216  -0.000150   0.000036  -0.000116
   75  C  5 YZ    0.000091   0.000065   0.000247   0.000222   0.000093
   76  C  6  S   -0.123433   0.117239  -0.055506   0.021127   0.020226
   77  C  6  S    0.228709  -0.216063   0.100491  -0.036766  -0.033960
   78  C  6  X    0.033837   0.001600  -0.129360   0.093127   0.112757
   79  C  6  Y   -0.010167   0.009011   0.039162  -0.090424  -0.124172
   80  C  6  Z    0.000904  -0.000500  -0.002104   0.001687   0.001945
   81  C  6  S    0.222407  -0.237846   0.151993  -0.063161  -0.068437
   82  C  6  X    0.006948  -0.003773  -0.033334   0.021640   0.045910
   83  C  6  Y    0.000051   0.002805   0.013883  -0.038690  -0.057557
   84  C  6  Z   -0.000173   0.000129  -0.000587  -0.000053   0.000972
   85  C  6 XX    0.006882  -0.003606  -0.006014   0.006407   0.007663
   86  C  6 YY    0.004070  -0.005305   0.005029  -0.001530  -0.000989
   87  C  6 ZZ    0.005920  -0.006485   0.007883  -0.008188  -0.010717
   88  C  6 XY   -0.000699  -0.001679   0.011251  -0.009421  -0.008589
   89  C  6 XZ    0.000020  -0.000006  -0.000219   0.000453   0.000634
   90  C  6 YZ    0.000094  -0.000223   0.000524  -0.000118  -0.000115
   91  C  7  S    0.123402   0.117176   0.055546   0.021087   0.020202
   92  C  7  S   -0.228645  -0.215948  -0.100564  -0.036687  -0.033912
   93  C  7  X    0.033795  -0.001622  -0.129510  -0.093020  -0.112697
   94  C  7  Y    0.010153   0.008972  -0.039318  -0.090585  -0.124192
   95  C  7  Z    0.000287   0.000550   0.000319  -0.001418  -0.000757
   96  C  7  S   -0.222366  -0.237719  -0.152095  -0.063060  -0.068382
   97  C  7  X    0.006946   0.003759  -0.033382  -0.021587  -0.045891
   98  C  7  Y   -0.000049   0.002795  -0.013939  -0.038751  -0.057547
   99  C  7  Z   -0.000257  -0.000174  -0.000009  -0.000082  -0.000760
  100  C  7 XX   -0.006873  -0.003604   0.006017   0.006413   0.007666
  101  C  7 YY   -0.004074  -0.005305  -0.005028  -0.001526  -0.000989
  102  C  7 ZZ   -0.005918  -0.006483  -0.007899  -0.008194  -0.010720
  103  C  7 XY   -0.000698   0.001680   0.011269   0.009421   0.008588
  104  C  7 XZ   -0.000006  -0.000068  -0.000068   0.000233   0.000306
  105  C  7 YZ    0.000091   0.000186   0.000351  -0.000107  -0.000096
  106  H  8  S   -0.000086   0.067494  -0.000352  -0.104179   0.091351
  107  H  8  S   -0.000186   0.013484  -0.000179  -0.060248   0.056843
  108  H  9  S    0.000248   0.066912   0.000352  -0.103446   0.094763
  109  H  9  S    0.000237   0.013152   0.000182  -0.059927   0.059187
  110  H 10  S    0.078709  -0.077863   0.059721  -0.050715  -0.063329
  111  H 10  S    0.016642  -0.018288   0.027423  -0.031578  -0.038658
  112  H 11  S    0.078290  -0.076715   0.057714  -0.051152  -0.063418
  113  H 11  S    0.016489  -0.017673   0.026395  -0.032590  -0.038805
  114  H 12  S    0.071057  -0.081097   0.084475  -0.029744  -0.024822
  115  H 12  S    0.012265  -0.018651   0.042635  -0.025791  -0.010573
  116  H 13  S   -0.071043  -0.081052  -0.084527  -0.029655  -0.024810
  117  H 13  S   -0.012273  -0.018639  -0.042659  -0.025740  -0.010552
  118  H 14  S   -0.078647  -0.077838  -0.059949  -0.050093  -0.062939
  119  H 14  S   -0.016613  -0.018251  -0.027571  -0.031202  -0.038414
  120  H 15  S   -0.078337  -0.076695  -0.057656  -0.051797  -0.063757
  121  H 15  S   -0.016507  -0.017692  -0.026320  -0.032969  -0.039012

                     16         17         18         19         20
                   -0.6611    -0.6486    -0.6070    -0.6032    -0.5926
                     A          A          A          A          A   
    1  O  1  S    0.001204   0.048031  -0.001170  -0.027313  -0.023159
    2  O  1  S   -0.002415  -0.112360   0.001919   0.062193   0.050709
    3  O  1  X    0.002640  -0.109617  -0.003578  -0.207596   0.013927
    4  O  1  Y    0.008664   0.247920  -0.012494  -0.222470  -0.191397
    5  O  1  Z    0.109825  -0.010277  -0.110628   0.008864   0.006482
    6  O  1  S   -0.005507  -0.187207   0.008017   0.123441   0.111161
    7  O  1  X    0.001528  -0.060635  -0.002500  -0.132266   0.012682
    8  O  1  Y    0.004575   0.137424  -0.006357  -0.129681  -0.113454
    9  O  1  Z    0.072134  -0.006331  -0.071328   0.005634   0.004076
   10  O  1 XX    0.000051  -0.004697  -0.000065   0.004349   0.002646
   11  O  1 YY    0.001052   0.016095  -0.001302  -0.014479  -0.013704
   12  O  1 ZZ   -0.000453  -0.004670   0.000308   0.003410   0.002138
   13  O  1 XY    0.000136  -0.008181  -0.000240  -0.014050  -0.000807
   14  O  1 XZ    0.000689   0.000085   0.000022   0.000359   0.000002
   15  O  1 YZ    0.011831  -0.000898  -0.010795   0.000952   0.000590
   16  O  2  S    0.000162  -0.047991   0.000839   0.027447  -0.023116
   17  O  2  S   -0.000624   0.112272  -0.002516  -0.062447   0.050602
   18  O  2  X    0.007023  -0.109797  -0.005196  -0.207440  -0.014647
   19  O  2  Y   -0.001286  -0.247848   0.002267   0.223693  -0.191216
   20  O  2  Z    0.109963  -0.006639   0.111073   0.006843  -0.001400
   21  O  2  S   -0.000014   0.187057  -0.001592  -0.124210   0.110991
   22  O  2  X    0.004403  -0.060727  -0.003134  -0.132168  -0.013119
   23  O  2  Y   -0.000553  -0.137392   0.001931   0.130346  -0.113322
   24  O  2  Z    0.072227  -0.004037   0.071591   0.004176  -0.000689
   25  O  2 XX   -0.000190   0.004691  -0.000280  -0.004359   0.002633
   26  O  2 YY   -0.000492  -0.016095  -0.000321   0.014590  -0.013708
   27  O  2 ZZ    0.000416   0.004682   0.000151  -0.003419   0.002147
   28  O  2 XY    0.000499  -0.008190  -0.000296  -0.014043   0.000758
   29  O  2 XZ   -0.000675  -0.000128   0.000009  -0.000360  -0.000010
   30  O  2 YZ    0.011850  -0.000596   0.010836   0.000627  -0.000146
   31  C  3  S   -0.000162   0.000020  -0.000430  -0.000034   0.031435
   32  C  3  S    0.000349  -0.000027   0.000230   0.000069  -0.053757
   33  C  3  X   -0.001476   0.174985   0.000296   0.025086   0.000153
   34  C  3  Y   -0.002421  -0.000231  -0.002098   0.000370  -0.121103
   35  C  3  Z    0.326681   0.003947  -0.000014   0.005241  -0.005363
   36  C  3  S   -0.000163  -0.000107   0.003044   0.000072  -0.117575
   37  C  3  X    0.001092   0.100121   0.000310  -0.007190   0.000225
   38  C  3  Y   -0.001027  -0.000065  -0.000524   0.000187  -0.065402
   39  C  3  Z    0.186835   0.002428  -0.000001   0.002897  -0.003061
   40  C  3 XX   -0.000140  -0.000001  -0.000105  -0.000043   0.017281
   41  C  3 YY   -0.000702  -0.000003  -0.000031   0.000011  -0.007738
   42  C  3 ZZ    0.000908   0.000005  -0.000214   0.000057  -0.013247
   43  C  3 XY    0.000118  -0.008135  -0.000268  -0.008545  -0.000038
   44  C  3 XZ    0.000011  -0.000154   0.006293  -0.000154   0.000218
   45  C  3 YZ    0.022469   0.000394   0.000009   0.000570  -0.000137
   46  C  4  S    0.000092  -0.022074   0.000204   0.006371  -0.019868
   47  C  4  S   -0.000507   0.055374  -0.000361  -0.018920   0.036597
   48  C  4  X    0.001654  -0.160450  -0.002282  -0.176902  -0.034122
   49  C  4  Y   -0.002351  -0.158526   0.005018   0.192201   0.196291
   50  C  4  Z    0.140225   0.000061  -0.119358  -0.000416  -0.004009
   51  C  4  S    0.002198   0.030282  -0.002051   0.008910   0.086751
   52  C  4  X    0.000098  -0.047249   0.000208  -0.067748  -0.011662
   53  C  4  Y    0.001414  -0.015109   0.001362   0.030268   0.051332
   54  C  4  Z    0.050162  -0.001226  -0.060304   0.001091  -0.001135
   55  C  4 XX   -0.000160  -0.002267   0.000587   0.013002   0.005592
   56  C  4 YY   -0.000291   0.002067  -0.000282  -0.010739  -0.004357
   57  C  4 ZZ    0.000264  -0.003625  -0.000051   0.002533   0.000830
   58  C  4 XY   -0.000040  -0.000006   0.000151   0.000917  -0.010871
   59  C  4 XZ    0.003184  -0.000022   0.006337  -0.000196  -0.000086
   60  C  4 YZ    0.000167  -0.000035   0.002402   0.000446  -0.000033
   61  C  5  S   -0.000462   0.022013  -0.000038  -0.006349  -0.019854
   62  C  5  S    0.001326  -0.055252   0.000621   0.018868   0.036628
   63  C  5  X    0.006777  -0.160445  -0.004801  -0.176842   0.033440
   64  C  5  Y   -0.003551   0.158431  -0.007927  -0.193034   0.195828
   65  C  5  Z    0.140068   0.005166   0.119112  -0.004048   0.008526
   66  C  5  S   -0.000764  -0.030048  -0.003578  -0.008911   0.086330
   67  C  5  X    0.001765  -0.047330  -0.002496  -0.067663   0.011399
   68  C  5  Y   -0.001318   0.015136  -0.001903  -0.030440   0.051065
   69  C  5  Z    0.050120   0.000430   0.060257  -0.000791   0.003706
   70  C  5 XX    0.000024   0.002266   0.000038  -0.013068   0.005583
   71  C  5 YY    0.000165  -0.002055   0.000332   0.010774  -0.004326
   72  C  5 ZZ   -0.000160   0.003615  -0.000380  -0.002529   0.000816
   73  C  5 XY   -0.000099   0.000001  -0.000227   0.000900   0.010847
   74  C  5 XZ   -0.003179   0.000001   0.006338  -0.000038   0.000456
   75  C  5 YZ    0.000182  -0.000067  -0.002368   0.000517  -0.000281
   76  C  6  S   -0.000605   0.002293   0.000010   0.006288   0.002020
   77  C  6  S    0.001456  -0.001838  -0.000273  -0.008562  -0.004279
   78  C  6  X   -0.006487  -0.029000   0.005212   0.136289   0.234849
   79  C  6  Y    0.003195  -0.166430  -0.011778  -0.139360   0.096413
   80  C  6  Z    0.137804   0.000242  -0.281276   0.015621   0.008948
   81  C  6  S   -0.000392  -0.006422   0.001616  -0.021628  -0.008299
   82  C  6  X   -0.003791  -0.028839   0.002249   0.069524   0.131366
   83  C  6  Y    0.001958  -0.084174  -0.007004  -0.066483   0.062462
   84  C  6  Z    0.073494  -0.000325  -0.147920   0.008887   0.005702
   85  C  6 XX   -0.000588   0.006953   0.001327   0.009972  -0.003058
   86  C  6 YY   -0.000418   0.003066   0.001075  -0.003450  -0.005714
   87  C  6 ZZ    0.001189  -0.011032  -0.002438  -0.010925   0.005196
   88  C  6 XY   -0.000345   0.000325   0.001461  -0.007991  -0.016930
   89  C  6 XZ    0.004083   0.001074  -0.003429   0.000844  -0.001002
   90  C  6 YZ    0.009087   0.000856  -0.020617   0.000973  -0.001184
   91  C  7  S    0.000406  -0.002272  -0.000406  -0.006259   0.001978
   92  C  7  S   -0.000784   0.001806   0.000415   0.008530  -0.004222
   93  C  7  X   -0.001212  -0.029158   0.009331   0.136814  -0.234092
   94  C  7  Y   -0.007171   0.166385  -0.006555   0.139887   0.095941
   95  C  7  Z    0.137986   0.003431   0.281537  -0.003102   0.014270
   96  C  7  S   -0.000208   0.006359   0.003206   0.021401  -0.007969
   97  C  7  X    0.000029  -0.028885   0.005438   0.069806  -0.130950
   98  C  7  Y   -0.004334   0.084131  -0.004831   0.066789   0.062119
   99  C  7  Z    0.073639   0.001514   0.148100  -0.001106   0.006790
  100  C  7 XX    0.000616  -0.006972   0.000819  -0.010051  -0.003037
  101  C  7 YY    0.000622  -0.003051   0.001355   0.003398  -0.005608
  102  C  7 ZZ   -0.001278   0.011034  -0.001916   0.011065   0.005092
  103  C  7 XY   -0.000373   0.000337  -0.001761  -0.007928   0.016800
  104  C  7 XZ   -0.004093  -0.000814  -0.003499  -0.000253  -0.001016
  105  C  7 YZ    0.009069   0.001046   0.020636  -0.000113   0.002410
  106  H  8  S    0.165863   0.002255  -0.000466   0.003367  -0.079449
  107  H  8  S    0.111671   0.001921  -0.000893   0.002763  -0.054456
  108  H  9  S   -0.163221  -0.002347  -0.000522  -0.002924  -0.076080
  109  H  9  S   -0.110524  -0.002031  -0.000927  -0.002401  -0.052704
  110  H 10  S    0.072592  -0.057645  -0.154329  -0.055531   0.024738
  111  H 10  S    0.049461  -0.040452  -0.116512  -0.043264   0.013819
  112  H 11  S   -0.066965  -0.063302   0.140413  -0.070132   0.027400
  113  H 11  S   -0.046135  -0.045111   0.107197  -0.054723   0.016714
  114  H 12  S   -0.001547   0.070019   0.010572  -0.018707  -0.156790
  115  H 12  S   -0.000894   0.034668   0.006857  -0.001931  -0.100758
  116  H 13  S    0.004588  -0.070015   0.013908   0.018294  -0.155694
  117  H 13  S    0.002218  -0.034693   0.008281   0.001663  -0.100108
  118  H 14  S   -0.073682   0.056144  -0.151772   0.064518   0.014090
  119  H 14  S   -0.050027   0.039481  -0.114511   0.050077   0.005686
  120  H 15  S    0.065787   0.064695   0.143073   0.061813   0.037488
  121  H 15  S    0.045473   0.045989   0.109245   0.048373   0.024460

                     21         22         23         24         25
                   -0.5741    -0.5560    -0.5397    -0.4826    -0.4799
                     A          A          A          A          A   
    1  O  1  S    0.001280   0.015031   0.007057   0.000163   0.000219
    2  O  1  S   -0.002647  -0.029459  -0.015084   0.000115  -0.001292
    3  O  1  X   -0.003284   0.001831  -0.110050   0.005783   0.000031
    4  O  1  Y    0.013553   0.219081   0.107487  -0.008461   0.011008
    5  O  1  Z    0.015699  -0.005692  -0.005640  -0.332454   0.337478
    6  O  1  S   -0.007126  -0.094612  -0.042731  -0.002405   0.001537
    7  O  1  X   -0.001868   0.000642  -0.068303   0.004659   0.000514
    8  O  1  Y    0.007688   0.131625   0.062659  -0.006780   0.008616
    9  O  1  Z    0.009202  -0.003085  -0.003526  -0.242742   0.249310
   10  O  1 XX   -0.000136  -0.003393  -0.001817   0.000272  -0.000263
   11  O  1 YY    0.000957   0.015563   0.006850  -0.001082   0.001044
   12  O  1 ZZ   -0.000154  -0.001268  -0.001268   0.001332  -0.001531
   13  O  1 XY   -0.000160   0.000185  -0.008030   0.000428  -0.000184
   14  O  1 XZ   -0.000253  -0.000015   0.000120  -0.000187   0.001674
   15  O  1 YZ    0.001227  -0.000494  -0.000431  -0.027421   0.026524
   16  O  2  S    0.000102   0.015026  -0.007029   0.000335  -0.000281
   17  O  2  S   -0.000417  -0.029439   0.015049  -0.000272   0.001188
   18  O  2  X   -0.003771  -0.001216  -0.110161   0.002938   0.001412
   19  O  2  Y    0.000074   0.218968  -0.107255  -0.007429  -0.011100
   20  O  2  Z    0.016122   0.006863  -0.001089   0.338535   0.331410
   21  O  2  S    0.000150  -0.094626   0.042508  -0.003412  -0.000284
   22  O  2  X   -0.001924  -0.000255  -0.068386   0.001633   0.001193
   23  O  2  Y    0.000676   0.131531  -0.062562  -0.006400  -0.008234
   24  O  2  Z    0.009471   0.003974  -0.000397   0.247216   0.244882
   25  O  2 XX   -0.000083  -0.003386   0.001818   0.000265   0.000133
   26  O  2 YY   -0.000032   0.015556  -0.006835  -0.001080  -0.001130
   27  O  2 ZZ   -0.000040  -0.001257   0.001291   0.001398   0.001486
   28  O  2 XY   -0.000301  -0.000146  -0.008036   0.000286  -0.000001
   29  O  2 XZ    0.000250   0.000010  -0.000162  -0.000195  -0.001659
   30  O  2 YZ    0.001262   0.000601  -0.000071   0.027894   0.026024
   31  C  3  S   -0.000860   0.013727  -0.000010  -0.000076   0.000114
   32  C  3  S    0.001331  -0.030292   0.000020   0.000211  -0.000581
   33  C  3  X    0.005933  -0.000054   0.181697  -0.001255   0.002680
   34  C  3  Y    0.007422   0.188073   0.000007   0.004418   0.001652
   35  C  3  Z   -0.250327   0.002857   0.010298  -0.001232  -0.142048
   36  C  3  S    0.003884  -0.043315   0.000028   0.002446   0.001250
   37  C  3  X    0.006558   0.000005   0.108191  -0.001613   0.002628
   38  C  3  Y    0.004564   0.101425  -0.000062   0.003369  -0.001043
   39  C  3  Z   -0.153611   0.001784   0.006305  -0.000936  -0.106272
   40  C  3 XX   -0.000505  -0.013830  -0.000030  -0.000324   0.000198
   41  C  3 YY    0.000905   0.006728  -0.000004   0.000362   0.000474
   42  C  3 ZZ   -0.000306   0.011874   0.000051   0.000250  -0.000743
   43  C  3 XY   -0.000499   0.000028  -0.013204   0.000067  -0.000289
   44  C  3 XZ   -0.000022   0.000043  -0.000126   0.007964  -0.000090
   45  C  3 YZ   -0.020609  -0.000268   0.000833  -0.000200  -0.021418
   46  C  4  S    0.000474   0.006071   0.004966  -0.000237   0.000244
   47  C  4  S   -0.000973  -0.009194  -0.010348   0.000976  -0.000210
   48  C  4  X   -0.003242  -0.036392  -0.145242   0.001847  -0.004275
   49  C  4  Y   -0.010685  -0.176521  -0.078249  -0.005176   0.003271
   50  C  4  Z    0.013325   0.003712  -0.000596  -0.200782   0.179008
   51  C  4  S   -0.000638  -0.046224  -0.016735   0.000276  -0.004166
   52  C  4  X   -0.000798  -0.014176  -0.061195   0.000252  -0.001574
   53  C  4  Y   -0.002272  -0.051101  -0.022730  -0.005496   0.004477
   54  C  4  Z    0.012686   0.000646  -0.001070  -0.138567   0.148623
   55  C  4 XX   -0.000584  -0.020973  -0.010032  -0.000034  -0.000065
   56  C  4 YY    0.000694   0.017822   0.008406   0.001332  -0.001058
   57  C  4 ZZ   -0.000356  -0.001605  -0.001113  -0.001136   0.001113
   58  C  4 XY    0.000124  -0.001376  -0.005924  -0.000460   0.000023
   59  C  4 XZ   -0.010809  -0.000092   0.000066  -0.001084  -0.001796
   60  C  4 YZ   -0.000733  -0.000796  -0.000362   0.026147  -0.029466
   61  C  5  S    0.000738   0.006075  -0.004936   0.000139  -0.000398
   62  C  5  S   -0.001045  -0.009206   0.010277  -0.000196   0.001048
   63  C  5  X   -0.006646   0.036793  -0.145112   0.004610  -0.002530
   64  C  5  Y   -0.002509  -0.176429   0.077860  -0.006888  -0.002921
   65  C  5  Z    0.013043  -0.003760   0.004005   0.203909   0.175409
   66  C  5  S   -0.006239  -0.046209   0.016729   0.000735   0.000659
   67  C  5  X   -0.002461   0.014418  -0.061084   0.002634   0.002181
   68  C  5  Y   -0.002010  -0.051120   0.022600  -0.006087  -0.004517
   69  C  5  Z    0.012539  -0.000620   0.001069   0.141202   0.146066
   70  C  5 XX    0.000267  -0.020968   0.009993  -0.000160   0.000031
   71  C  5 YY   -0.000015   0.017818  -0.008373   0.001402   0.001248
   72  C  5 ZZ   -0.000123  -0.001609   0.001114  -0.001202  -0.001217
   73  C  5 XY   -0.000674   0.001386  -0.005914   0.000014  -0.000330
   74  C  5 XZ    0.010782   0.000132  -0.000422  -0.001070   0.001800
   75  C  5 YZ   -0.000720   0.000690  -0.000472  -0.026668  -0.028987
   76  C  6  S    0.000332   0.004593  -0.000165   0.000083  -0.000159
   77  C  6  S   -0.000567  -0.011322  -0.001654   0.000124  -0.000185
   78  C  6  X   -0.005334   0.066024   0.193174  -0.001432   0.000828
   79  C  6  Y    0.008028   0.221774   0.191808   0.001347  -0.004635
   80  C  6  Z    0.263560  -0.009012  -0.006519   0.122373  -0.080809
   81  C  6  S   -0.002097  -0.014683  -0.005873  -0.000813   0.002839
   82  C  6  X   -0.001707   0.047956   0.122528   0.001026  -0.000671
   83  C  6  Y    0.004709   0.124301   0.117481   0.002911  -0.005267
   84  C  6  Z    0.141785  -0.004348  -0.002326   0.067547  -0.054447
   85  C  6 XX   -0.001176  -0.016225  -0.015025  -0.000230   0.000408
   86  C  6 YY   -0.000894   0.002258   0.000258  -0.000444   0.000236
   87  C  6 ZZ    0.001929   0.015130   0.012996   0.000659  -0.000766
   88  C  6 XY   -0.001484  -0.008412  -0.017660  -0.000885   0.000704
   89  C  6 XZ    0.000540  -0.001630  -0.001718  -0.003760   0.002416
   90  C  6 YZ    0.020891  -0.002394  -0.002861   0.015015  -0.011647
   91  C  7  S   -0.000154   0.004616   0.000170   0.000033   0.000157
   92  C  7  S    0.000028  -0.011345   0.001654   0.000178  -0.000002
   93  C  7  X    0.013889  -0.066389   0.193049  -0.002619   0.000809
   94  C  7  Y   -0.011866   0.221857  -0.191440   0.003084   0.002645
   95  C  7  Z    0.263283   0.007338  -0.013109  -0.123795  -0.078640
   96  C  7  S    0.002834  -0.014833   0.005772  -0.000787  -0.002154
   97  C  7  X    0.008266  -0.048192   0.122521  -0.003693  -0.001156
   98  C  7  Y   -0.007484   0.124378  -0.117231   0.004100   0.004690
   99  C  7  Z    0.141647   0.003539  -0.006174  -0.068531  -0.053225
  100  C  7 XX    0.001243  -0.016283   0.015050  -0.000554  -0.000298
  101  C  7 YY    0.001236   0.002257  -0.000286  -0.000408  -0.000301
  102  C  7 ZZ   -0.002204   0.015178  -0.012983   0.000915   0.000662
  103  C  7 XY   -0.002217   0.008487  -0.017673   0.000869   0.000366
  104  C  7 XZ   -0.000547  -0.001068   0.001170  -0.003793  -0.002313
  105  C  7 YZ    0.020809   0.002047  -0.002939  -0.015213  -0.011403
  106  H  8  S   -0.132139   0.069113   0.005760   0.001150  -0.096081
  107  H  8  S   -0.095623   0.069414   0.004016   0.000516  -0.104010
  108  H  9  S    0.136108   0.070220  -0.005500   0.002904   0.094849
  109  H  9  S    0.098342   0.070980  -0.003723   0.002427   0.104348
  110  H 10  S    0.147545   0.073636   0.061013   0.079400  -0.056970
  111  H 10  S    0.115961   0.064399   0.051089   0.082207  -0.060346
  112  H 11  S   -0.136682   0.093611   0.082763  -0.075731   0.051771
  113  H 11  S   -0.107583   0.082381   0.071015  -0.080633   0.057179
  114  H 12  S   -0.009328  -0.128813  -0.182191  -0.004154   0.004337
  115  H 12  S   -0.006058  -0.097931  -0.133904  -0.001650   0.001125
  116  H 13  S    0.018356  -0.129165   0.181945  -0.006168  -0.002728
  117  H 13  S    0.012240  -0.098158   0.133726  -0.003064   0.000274
  118  H 14  S   -0.148295   0.075101  -0.058762   0.081084   0.054808
  119  H 14  S   -0.116223   0.065563  -0.049078   0.083924   0.057861
  120  H 15  S    0.135101   0.092218  -0.084674  -0.075824  -0.051258
  121  H 15  S    0.106592   0.081247  -0.072742  -0.080763  -0.056858

                     26         27         28         29         30
                   -0.4356    -0.3919     0.1504     0.1571     0.1978
                     A          A          A          A          A   
    1  O  1  S   -0.004043  -0.005302   0.000387   0.000208  -0.017258
    2  O  1  S    0.008810   0.007773  -0.000066  -0.001864   0.019941
    3  O  1  X   -0.384865   0.387524  -0.004777  -0.004672   0.008632
    4  O  1  Y    0.003873  -0.056386   0.004978   0.004760   0.039850
    5  O  1  Z   -0.005265   0.004666   0.242259   0.263838   0.010982
    6  O  1  S    0.022133   0.059562  -0.007464   0.005175   0.223965
    7  O  1  X   -0.290514   0.298952  -0.005262  -0.006201   0.017497
    8  O  1  Y    0.007837  -0.021699   0.003138   0.008619   0.119755
    9  O  1  Z   -0.003821   0.003317   0.298234   0.354727   0.011797
   10  O  1 XX   -0.002455  -0.003081   0.000171  -0.000583  -0.008599
   11  O  1 YY    0.000302  -0.001189  -0.000039  -0.000394   0.002614
   12  O  1 ZZ   -0.000072  -0.000290   0.000476  -0.000145  -0.010750
   13  O  1 XY   -0.013243   0.014448  -0.000141  -0.000012   0.000155
   14  O  1 XZ    0.000392  -0.000171  -0.000842  -0.000290  -0.000000
   15  O  1 YZ   -0.000239  -0.000071  -0.001354   0.000884  -0.000479
   16  O  2  S   -0.004039   0.005301   0.000059   0.000336  -0.017273
   17  O  2  S    0.008796  -0.007773   0.000528  -0.000559   0.019915
   18  O  2  X    0.385107   0.387284  -0.001620  -0.001685  -0.008935
   19  O  2  Y    0.003945   0.056509  -0.005983   0.005288   0.039821
   20  O  2  Z    0.001859  -0.003580   0.241166  -0.265102  -0.006518
   21  O  2  S    0.022108  -0.059533  -0.001931  -0.002358   0.224401
   22  O  2  X    0.290679   0.298738  -0.000765  -0.002323  -0.017879
   23  O  2  Y    0.007876   0.021809  -0.007135   0.007479   0.119905
   24  O  2  Z    0.001216  -0.003162   0.296639  -0.356296  -0.006936
   25  O  2 XX   -0.002452   0.003089   0.000275  -0.000113  -0.008617
   26  O  2 YY    0.000294   0.001192   0.000348   0.000106   0.002614
   27  O  2 ZZ   -0.000075   0.000278   0.000163   0.000401  -0.010776
   28  O  2 XY    0.013254   0.014434  -0.000066  -0.000001  -0.000152
   29  O  2 XZ    0.000408   0.000189   0.000843  -0.000285  -0.000041
   30  O  2 YZ    0.000235  -0.000373  -0.001367  -0.000865   0.000404
   31  C  3  S   -0.039948   0.000003   0.000825   0.002148  -0.086360
   32  C  3  S    0.075482  -0.000033  -0.000907  -0.002404   0.054628
   33  C  3  X    0.000043   0.235737   0.003119   0.000301   0.000192
   34  C  3  Y   -0.226647  -0.000008   0.000074  -0.001690   0.164450
   35  C  3  Z   -0.003715   0.000017  -0.050286   0.000061   0.000839
   36  C  3  S    0.278853   0.000063  -0.015000  -0.042042   1.520144
   37  C  3  X    0.000002   0.239151   0.016728   0.010525   0.001014
   38  C  3  Y   -0.196918  -0.000184   0.000770  -0.024695   0.635364
   39  C  3  Z   -0.004149   0.002452  -0.424613   0.000945   0.005981
   40  C  3 XX    0.011704  -0.000034  -0.000871  -0.001448   0.002168
   41  C  3 YY   -0.002553   0.000014  -0.000460   0.000799  -0.004534
   42  C  3 ZZ   -0.009485   0.000012   0.001339   0.000739  -0.013449
   43  C  3 XY   -0.000015  -0.012283   0.001036  -0.000118   0.000004
   44  C  3 XZ    0.000015  -0.000116   0.000095   0.036810   0.001035
   45  C  3 YZ    0.000248   0.000095   0.030749  -0.000113   0.000345
   46  C  4  S    0.004361   0.000012  -0.001525  -0.000650   0.002571
   47  C  4  S   -0.002701  -0.001978  -0.000070  -0.001863   0.048952
   48  C  4  X    0.119543  -0.148527   0.004317   0.003352  -0.006820
   49  C  4  Y   -0.002723   0.018422  -0.006087  -0.008125   0.027915
   50  C  4  Z    0.000275  -0.005438  -0.282142  -0.314721  -0.013402
   51  C  4  S   -0.058699   0.022688   0.030701   0.011350  -0.262079
   52  C  4  X   -0.047256  -0.022944   0.006832   0.007324   0.006454
   53  C  4  Y   -0.004577   0.074630  -0.006412   0.000143   0.080381
   54  C  4  Z   -0.001088  -0.002582  -0.298726  -0.471396  -0.023305
   55  C  4 XX    0.005357   0.002059  -0.000320  -0.000181   0.001526
[...]
             51  C  4  S      0.39329     0.27288
             52  C  4  X      0.15764     0.32312
             53  C  4  Y      0.18599     0.30846
             54  C  4  Z      0.07739     0.27758
             55  C  4 XX      0.00677     0.14866
             56  C  4 YY     -0.00441     0.13252
             57  C  4 ZZ      0.03285     0.20140
             58  C  4 XY      0.01331     0.02582
             59  C  4 XZ      0.03682     0.07652
             60  C  4 YZ      0.02232     0.04297
             61  C  5  S      1.99700     1.97302
             62  C  5  S      0.69767     0.35755
             63  C  5  X      0.70652     0.61767
             64  C  5  Y      0.50587     0.45188
             65  C  5  Z      0.63497     0.56452
             66  C  5  S      0.39862     0.27409
             67  C  5  X      0.14936     0.32351
             68  C  5  Y      0.17612     0.30439
             69  C  5  Z      0.09595     0.28083
             70  C  5 XX      0.01814     0.16969
             71  C  5 YY     -0.00245     0.13600
             72  C  5 ZZ      0.02368     0.18261
             73  C  5 XY      0.01518     0.02896
             74  C  5 XZ      0.03344     0.07034
             75  C  5 YZ      0.02028     0.04010
             76  C  6  S      1.99664     1.98073
             77  C  6  S      0.63090     0.35451
             78  C  6  X      0.68785     0.62514
             79  C  6  Y      0.70412     0.63618
             80  C  6  Z      0.70876     0.64441
             81  C  6  S      0.66423     0.32982
             82  C  6  X      0.32779     0.44149
             83  C  6  Y      0.41008     0.49887
             84  C  6  Z      0.37584     0.45565
             85  C  6 XX      0.01254     0.15036
             86  C  6 YY      0.02047     0.15653
             87  C  6 ZZ      0.01631     0.15454
             88  C  6 XY      0.01127     0.01811
             89  C  6 XZ      0.01331     0.01953
             90  C  6 YZ      0.00583     0.00907
             91  C  7  S      1.99663     1.98074
             92  C  7  S      0.63200     0.35500
             93  C  7  X      0.67913     0.61948
             94  C  7  Y      0.70524     0.63636
             95  C  7  Z      0.71299     0.64619
             96  C  7  S      0.66586     0.32994
             97  C  7  X      0.28509     0.40930
             98  C  7  Y      0.41240     0.49919
             99  C  7  Z      0.41148     0.48499
            100  C  7 XX      0.01410     0.15408
            101  C  7 YY      0.02109     0.15747
            102  C  7 ZZ      0.02028     0.15753
            103  C  7 XY      0.00784     0.01364
            104  C  7 XZ      0.00825     0.01316
            105  C  7 YZ      0.00825     0.01196
            106  H  8  S      0.52332     0.49115
            107  H  8  S      0.26163     0.33380
            108  H  9  S      0.51873     0.48538
            109  H  9  S      0.26821     0.33503
            110  H 10  S      0.52045     0.48408
            111  H 10  S      0.29854     0.34860
            112  H 11  S      0.51436     0.47728
            113  H 11  S      0.25910     0.33438
            114  H 12  S      0.52127     0.48358
            115  H 12  S      0.27364     0.33998
            116  H 13  S      0.52064     0.48266
            117  H 13  S      0.26825     0.33782
            118  H 14  S      0.51998     0.48393
            119  H 14  S      0.29201     0.34655
            120  H 15  S      0.51702     0.48061
            121  H 15  S      0.27816     0.34051

          ----- MULLIKEN ATOMIC OVERLAP POPULATIONS -----
          (OFF-DIAGONAL ELEMENTS NEED TO BE MULTIPLIED BY 2)

             1           2           3           4           5

    1    8.0708156
    2   -0.0000388   8.0950122
    3   -0.0876413  -0.0914005   5.5421283
    4    0.5913970   0.0024453   0.3073696   4.3858304
    5    0.0010284   0.5676065   0.2914580  -0.0212989   4.4223092
    6   -0.0738822  -0.0038935  -0.1124132   0.3477486   0.0020160
    7   -0.0003203  -0.0686370  -0.1015404   0.0012885   0.3573088
    8    0.0038388   0.0028187   0.3748472  -0.0315732  -0.0273858
    9    0.0023700   0.0000203   0.3687015  -0.0241598  -0.0261680
   10    0.0013286   0.0000763   0.0013073  -0.0299091   0.0001600
   11    0.0014242   0.0076255   0.0012423  -0.0273414   0.0000049
   12    0.0040541   0.0001028   0.0050799  -0.0356547  -0.0001842
   13   -0.0000003   0.0039573   0.0050664  -0.0000995  -0.0360008
   14   -0.0000012   0.0014535   0.0022710   0.0002836  -0.0306959
   15    0.0004555   0.0009694   0.0024856  -0.0004499  -0.0298019

             6           7           8           9          10

    6    5.2961024
    7   -0.0000817   5.2547302
    8    0.0040816   0.0019610   0.4757433
    9    0.0027863   0.0017813  -0.0183248   0.4798433
   10    0.3720923  -0.0000018  -0.0002040   0.0004278   0.5161539
   11    0.3716922   0.0001888  -0.0000091  -0.0000643  -0.0227782
   12    0.3796641   0.0000044  -0.0000818  -0.0000294  -0.0196616
   13    0.0000032   0.3829650   0.0000606  -0.0001099   0.0000000
   14   -0.0000008   0.3753128  -0.0005248  -0.0002692   0.0000002
   15    0.0000197   0.3756540  -0.0002977   0.0001399  -0.0000003

            11          12          13          14          15

   11    0.4572985
   12   -0.0158100   0.4774338
   13   -0.0000032  -0.0000001   0.4701572
   14   -0.0000023  -0.0000000  -0.0194132   0.5079358
   15   -0.0000108  -0.0000004  -0.0176927  -0.0243642   0.4880697

          TOTAL MULLIKEN AND LOWDIN ATOMIC POPULATIONS
       ATOM         MULL.POP.    CHARGE          LOW.POP.     CHARGE
    1 O             8.514828   -0.514828         8.286011   -0.286011
    2 O             8.518118   -0.518118         8.290594   -0.290594
    3 C             6.508962   -0.508962         6.342808   -0.342808
    4 C             5.465876    0.534124         5.776135    0.223865
    5 C             5.470356    0.529644         5.775165    0.224835
    6 C             6.585935   -0.585935         6.474917   -0.474917
    7 C             6.580614   -0.580614         6.469028   -0.469028
    8 H             0.784950    0.215050         0.824948    0.175052
    9 H             0.786945    0.213055         0.820419    0.179581
   10 H             0.818991    0.181009         0.832675    0.167325
   11 H             0.773457    0.226543         0.811664    0.188336
   12 H             0.794917    0.205083         0.823558    0.176442
   13 H             0.788890    0.211110         0.820484    0.179516
   14 H             0.811985    0.188015         0.830474    0.169526
   15 H             0.795176    0.204824         0.821119    0.178881

          -------------------------------
          BOND ORDER AND VALENCE ANALYSIS     BOND ORDER THRESHOLD=0.050
          -------------------------------

                   BOND                       BOND                       BOND
  ATOM PAIR DIST  ORDER      ATOM PAIR DIST  ORDER      ATOM PAIR DIST  ORDER
    1   4  1.192  1.885        2   5  1.192  1.861        3   4  1.527  0.918
    3   5  1.529  0.909        3   8  1.082  0.942        3   9  1.086  0.935
    4   6  1.508  0.951        5   7  1.508  0.958        6  10  1.086  0.942
    6  11  1.084  0.923        6  12  1.081  0.948        7  13  1.081  0.946
    7  14  1.086  0.941        7  15  1.086  0.936

                       TOTAL       BONDED        FREE
      ATOM            VALENCE     VALENCE     VALENCE
    1 O                 1.928       1.928       0.000
    2 O                 1.911       1.911       0.000
    3 C                 3.653       3.653      -0.000
    4 C                 3.709       3.709      -0.000
    5 C                 3.688       3.688      -0.000
    6 C                 3.739       3.739      -0.000
    7 C                 3.763       3.763      -0.000
    8 H                 0.922       0.922      -0.000
    9 H                 0.920       0.920       0.000
   10 H                 0.928       0.928      -0.000
   11 H                 0.923       0.923       0.000
   12 H                 0.929       0.929      -0.000
   13 H                 0.927       0.927       0.000
   14 H                 0.926       0.926       0.000
   15 H                 0.921       0.921      -0.000

          ---------------------
          ELECTROSTATIC MOMENTS
          ---------------------

 POINT   1           X           Y           Z (BOHR)    CHARGE
                -0.167353    0.790917    0.094872        0.00 (A.U.)
         DX          DY          DZ         /D/  (DEBYE)
     0.998175    2.572557   -0.343455    2.780713
 ...... END OF PROPERTY EVALUATION ......
 STEP CPU TIME =     0.04 TOTAL CPU TIME =        388.5 (      6.5 MIN)
 TOTAL WALL CLOCK TIME=        401.3 SECONDS, CPU UTILIZATION IS    96.80%
  $VIB   
          IVIB=   0 IATOM=   0 ICOORD=   0 E=     -343.7277512197
  2.026892053E-05-2.007685690E-04 3.408134469E-04-2.165298086E-04-2.611410346E-04
 -2.018068466E-04 8.120163749E-05-2.633673340E-04-1.669231807E-04 2.474913551E-04
  1.261911843E-04-1.444271751E-04-3.974136921E-04 1.687992880E-04 3.212351081E-05
 -1.648836628E-04 2.665958862E-04-3.410159849E-04 1.724717656E-04 1.304465497E-04
  1.285653108E-04 1.047069054E-04 8.905293208E-05 2.204452131E-04-5.127653167E-05
  9.316384729E-05-5.137832107E-05 8.818035013E-05-1.268879154E-04 3.600801376E-05
  1.063897531E-04-1.021805564E-04 7.553462182E-05-7.753113224E-05 5.180721502E-05
  1.133386147E-05 6.248126291E-05-1.667259410E-05-4.617293351E-05-3.081100403E-06
  4.300640169E-05 1.289934183E-04 2.752397953E-05 1.954700286E-06-2.209295889E-05
  9.981754888E-01 2.572557020E+00-3.434547980E-01
 ......END OF GEOMETRY SEARCH......
 STEP CPU TIME =     0.00 TOTAL CPU TIME =        388.5 (      6.5 MIN)
 TOTAL WALL CLOCK TIME=        401.3 SECONDS, CPU UTILIZATION IS    96.80%
               1145677  WORDS OF DYNAMIC MEMORY USED
 EXECUTION OF GAMESS TERMINATED NORMALLY Thu Apr 30 06:30:31 2026
 DDI: 263640 bytes (0.3 MB / 0 MWords) used by master data server.

 ----------------------------------------
 CPU timing information for all processes
 ========================================
 0: 386.151 + 2.316 = 388.468
 ----------------------------------------
 ddikick.x: exited gracefully.
----- accounting info -----
Files used on the master node chemcompute-node-0.novalocal were:
-rw-r--r--. 1 chemcomp chemcomp     1197 Apr 30 06:23 /scratch/1118310/1594872.F05
-rw-rw-r--. 1 chemcomp chemcomp 55705600 Apr 30 06:30 /scratch/1118310/1594872.F10
Thu Apr 30 06:30:34 UTC 2026
0.091u 0.027s 6:44.76 0.0%	0+0k 8+208io 0pf+0w
Finishing Up...
Wrote IR file to: Gamess.ir
vibramans not found, parsing from GAMESS output
Wrote Raman file to: Gamess.raman
Wrote UV-Vis file to: Gamess.uvvis
Wrote Electronic Energy file to: Gamess.energy
Wrote Geometry Optimization file to: Gamess.molden
Wrote Atomic Charges file to: Gamess.charges
Wrote Dipole Moment file to: Gamess.moments
Wrote all Results to: Gamess.cclib
reading wave-function from mo.molden
Loading data from molden type file mo.molden

Converting the regular grid to a vector grid containing 2.16e+05 grid points...

Starting the calculation of the molecular orbitals...
The grid has been separated into 22 slices each having 1.00e+04 grid points.
The calculation will be carried out using only one process.

	The number of subprocesses can be changed with -p


There are 121 contracted Cartesian AOs and 37 MOs to be calculated.
	Finished 10 % (4 slices in 0.404 s)
	Finished 20 % (2 slices in 0.180 s)
	Finished 30 % (2 slices in 0.176 s)
	Finished 40 % (2 slices in 0.175 s)
	Finished 50 % (2 slices in 0.174 s)
	Finished 60 % (3 slices in 0.263 s)
	Finished 70 % (2 slices in 0.180 s)
	Finished 80 % (2 slices in 0.183 s)
	Finished 90 % (2 slices in 0.187 s)
Converting the output from a vector grid to a regular grid...

Norm of the MOs:
	1.114537	MO 1.A (Occ = 2.00, E = -20.5688 E_h)
	0.894269	MO 2.A (Occ = 2.00, E = -20.5612 E_h)
	0.830712	MO 3.A (Occ = 2.00, E = -11.3496 E_h)
	0.907300	MO 4.A (Occ = 2.00, E = -11.3409 E_h)
	0.991606	MO 5.A (Occ = 2.00, E = -11.2491 E_h)
	1.226412	MO 6.A (Occ = 2.00, E = -11.2400 E_h)
	0.892157	MO 7.A (Occ = 2.00, E = -11.2280 E_h)
	1.002624	MO 8.A (Occ = 2.00, E = -1.4172 E_h)
	0.997256	MO 9.A (Occ = 2.00, E = -1.4063 E_h)
	0.999771	MO 10.A (Occ = 2.00, E = -1.0713 E_h)
	1.001283	MO 11.A (Occ = 2.00, E = -1.0210 E_h)
	1.000647	MO 12.A (Occ = 2.00, E = -0.9751 E_h)
	0.997047	MO 13.A (Occ = 2.00, E = -0.7805 E_h)
	0.996528	MO 14.A (Occ = 2.00, E = -0.7340 E_h)
	1.000091	MO 15.A (Occ = 2.00, E = -0.6732 E_h)
	1.000044	MO 16.A (Occ = 2.00, E = -0.6652 E_h)
	0.998524	MO 17.A (Occ = 2.00, E = -0.6609 E_h)
	0.999028	MO 18.A (Occ = 2.00, E = -0.6234 E_h)
	0.999880	MO 19.A (Occ = 2.00, E = -0.6052 E_h)
	0.999927	MO 20.A (Occ = 2.00, E = -0.5954 E_h)
	0.999571	MO 21.A (Occ = 2.00, E = -0.5738 E_h)
	0.999949	MO 22.A (Occ = 2.00, E = -0.5586 E_h)
	1.000182	MO 23.A (Occ = 2.00, E = -0.5369 E_h)
	0.999387	MO 24.A (Occ = 2.00, E = -0.5112 E_h)
	0.999806	MO 25.A (Occ = 2.00, E = -0.5053 E_h)
	1.000994	MO 26.A (Occ = 2.00, E = -0.4269 E_h)
	1.000395	MO 27.A (Occ = 2.00, E = -0.4065 E_h)
	0.999701	MO 28.A (Occ = 0.00, E = +0.1387 E_h)
	0.999619	MO 29.A (Occ = 0.00, E = +0.1731 E_h)
	1.001670	MO 30.A (Occ = 0.00, E = +0.2310 E_h)
	1.000144	MO 31.A (Occ = 0.00, E = +0.2540 E_h)
	1.000291	MO 32.A (Occ = 0.00, E = +0.2855 E_h)
	0.999437	MO 33.A (Occ = 0.00, E = +0.2946 E_h)
	1.000366	MO 34.A (Occ = 0.00, E = +0.3011 E_h)
	0.999702	MO 35.A (Occ = 0.00, E = +0.3166 E_h)
	1.000050	MO 36.A (Occ = 0.00, E = +0.3220 E_h)
	0.999694	MO 37.A (Occ = 0.00, E = +0.3284 E_h)
[done] wrote 38 entries to mo_cutoffs.json
total density…
JmolData using command options ["-n", "-s", "rho.spt"]
{noDisplay=true, noConsole=true, exit=true, headlessMaxTimeMs=60000, JmolData=true, isDataOnly=true}
Jmol version 16.3.31  2025-07-21 14:08
Operating headless display=null nographicsallowed=true
Executing script from file: rho.spt
jmolapp evalfilearsgs  rho.spt
Executing script: ;exitJmol;
FileManager opening file /data/slurm/159/1594872/rho.spt

FileManager.getAtomSetCollectionFromFile(/data/slurm/159/1594872/Gamess.stdout)
FileManager opening file /data/slurm/159/1594872/Gamess.stdout
The Resolver thinks GamessUS
          *         GAMESS VERSION = 30 JUN 2019 (R1)          *

          1 ELECTRON INTEGRALS
 ...... END OF ONE-ELECTRON INTEGRALS ......
Energy for model 2 = -343.7096421731
121 molecular orbitals read in model 2
Energy for model 2 = -343.7096421731
Molecular dipole for model 2 = {9.530001E-4, 5.98679, 0.012157}
Energy for model 3 = -343.7143687771
Energy for model 4 = -343.7120726561
Energy for model 5 = -343.7165105072
Energy for model 6 = -343.7161307051
Energy for model 7 = -343.7173595623
Energy for model 8 = -343.7159456743
Energy for model 9 = -343.7174938808
Energy for model 10 = -343.7175590856
Energy for model 11 = -343.7177247460
Energy for model 12 = -343.7178287432
Energy for model 13 = -343.7179459066
Energy for model 14 = -343.7181873408
Energy for model 15 = -343.7184554495
Energy for model 16 = -343.7188597267
Energy for model 17 = -343.7193223536
Energy for model 18 = -343.7194659844
Energy for model 19 = -343.7196991431
Energy for model 20 = -343.7109547855
Energy for model 21 = -343.7201366527
Energy for model 22 = -343.7179753722
Energy for model 23 = -343.7210831482
Energy for model 24 = -343.7205260673
Energy for model 25 = -343.7215082938
Energy for model 26 = -343.7213835774
Energy for model 27 = -343.7220119021
Energy for model 28 = -343.7212747960
Energy for model 29 = -343.7222258255
Energy for model 30 = -343.7224653163
Energy for model 31 = -343.7227434123
Energy for model 32 = -343.7230841980
Energy for model 33 = -343.7236706415
Energy for model 34 = -343.7235059611
Energy for model 35 = -343.7244474710
Energy for model 36 = -343.7242288397
Energy for model 37 = -343.7238140532
Energy for model 38 = -343.7247985464
Energy for model 39 = -343.7248766080
Energy for model 40 = -343.7251337973
Energy for model 41 = -343.7252851687
Energy for model 42 = -343.7254339218
Energy for model 43 = -343.7256409063
Energy for model 44 = -343.7259706622
Energy for model 45 = -343.7260344806
Energy for model 46 = -343.7265187904
Energy for model 47 = -343.7263109379
Energy for model 48 = -343.7268549984
Energy for model 49 = -343.7268923512
Energy for model 50 = -343.7270535775
Energy for model 51 = -343.7271988080
Energy for model 52 = -343.7272843429
Energy for model 53 = -343.7274161935
Energy for model 54 = -343.7271392823
Energy for model 55 = -343.7274529022
Energy for model 56 = -343.7274784963
Energy for model 57 = -343.7275954714
Energy for model 58 = -343.7275909849
Energy for model 59 = -343.7276411853
Energy for model 60 = -343.7276580963
Energy for model 61 = -343.7276866852
Energy for model 62 = -343.7277131172
Energy for model 63 = -343.7277273155
Energy for model 64 = -343.7277384630
Energy for model 65 = -343.7277449923
Energy for model 66 = -343.7277496249
Energy for model 67 = -343.7277512197
37 molecular orbitals read in model 68
Energy for model 68 = -343.7277512197
Molecular dipole for model 68 = {0.998175, 2.572557, -0.343455}
Time for openFile(/data/slurm/159/1594872/Gamess.stdout): 454 ms
reading 1020 atoms
ModelSet: haveSymmetry:false haveUnitcells:false haveFractionalCoord:false
68 models in this collection. Use getProperty "modelInfo" or getProperty "auxiliaryInfo" to inspect them.
Default Van der Waals type for model set to Babel
1020 atoms created
ModelSet: autobonding; use  autobond=false  to not generate bonds automatically
Time for creating model: 42 ms
68 models
121 molecular orbitals in model 1.2
37 molecular orbitals in model 1.68

MO 27
Molecular orbital #1/121 6-31G(d) RHF OPTIMIZE
15 atoms will be used in the surface calculation
Maximum number of voxels for index=0 exceeded (121) -- set to 80
Maximum number of voxels for index=1 exceeded (83) -- set to 80
generating isosurface data for MO using cutoff 1.9001697E-4
QuantumCalculation:
 origin = [-6.02577, -4.22926, -3.50571]
 range (Ang) = [12.205134, 8.404193, 7.1251435]
 steps (Bohr)= [0.288303, 0.19851924, 0.18964083]
 origin(Bohr)= [-11.386995, -7.9921007, -6.6247964]
 steps = [0.288303, 0.19851924, 0.18964083]
 counts= 80 80 71
calculation type: 6-31G(d) RHF OPTIMIZE OK.
boundbox corners {-4.2772627 -2.4451976 -1.75919} {4.2777767 2.3582878 1.7643175}
rho created  with cutoff=1.9001697E-4; isosurface count: 1
isosurface full data range -1.0 to 1.0 with color scheme spanning -1.0 to 1.0
#created by Jmol Version 16.3.31  2025-07-21 14:08 on Thu Apr 30 06:30:40 UTC 2026
MO
calculation type: 6-31G(d) RHF OPTIMIZE

isosurface resolution for axis 1 set to 6.5546184 points/Angstrom; 80 voxels
isosurface resolution for axis 2 set to 9.519058 points/Angstrom; 80 voxels
isosurface resolution for axis 3 set to 9.964711 points/Angstrom; 71 voxels
454400 voxels total

1 id:rho; model:1.2; vertices:11480; polygons:22956; visible:true; dataRange:[-1.0, 1.0, -1.0, 1.0]; title:isosurface rho cutoff 0.013784665043380745 mo density;

<jvxlSurfaceInfo 
  isModelConnected="true" 
  cutoff="1.9001697E-4" 
  isCutoffAbsolute="true" 
  pointsPerAngstrom="6.5546184" 
  nBytesData="41016" 
  isXLowToHigh="false" 
  nSurfaceInts="3760" 
  nBytesUncompressedEdgeData="11479" 
  nBytesUncompressedColorData="25600" 
  precisionColor="true" 
  bicolorMap="true" 
  colorNegative="[xff0000]" 
  colorPositive="[x0000ff]" 
  color="[xffa500]" 
  translucency="0.0" 
  rendering="fill noMesh noDots notFrontOnly frontlit" 
  slabbable="true" 
  xyzMin="{-4.2772627 -2.4451976 -1.75919}" 
  xyzMax="{4.2777767 2.3582878 1.7643175}" 
  approximateCompressionRatio="not calculated" 
  jmolVersion="Jmol 16.3.31  2025-07-21 14:08">
</jvxlSurfaceInfo>


chemcompute.org
{'UTCtimestamp': '2026-04-30T06:30:50.887128', 'cluster': 'jetstream2', 'clusterJobNumber': '1118310', 'status': 'COMPLETE', 'nodeList': 'chemcompute-node-0'}
1118310
