----- GAMESS execution script 'rungms' -----
This job is running on host chemcompute-node-0.novalocal
under operating system Linux at Thu Apr 30 06:49:46 UTC 2026
SLURM has assigned the following compute nodes to this run:
Available scratch disk space (Kbyte units) at beginning of the job is
Filesystem     1K-blocks     Used Available Use% Mounted on
/dev/sda4       61775852 12537960  49237892  21% /
GAMESS temporary binary files will be written to /scratch/1118328
GAMESS supplementary output files will be written to /data/slurm/159/1594890
Copying input file 1594890.inp to your run's scratch directory...
The generated host list is
chemcompute-node-0.novalocal

 Distributed Data Interface kickoff program.
 Initiating 1 compute processes on 1 nodes to run the following command:
 /data/gamess-2019R1-avx2-ddi/gamess.00.x 1594890 

          ******************************************************
          *         GAMESS VERSION = 30 JUN 2019 (R1)          *
          *             FROM IOWA STATE UNIVERSITY             *
          * M.W.SCHMIDT, K.K.BALDRIDGE, J.A.BOATZ, S.T.ELBERT, *
          *   M.S.GORDON, J.H.JENSEN, S.KOSEKI, N.MATSUNAGA,   *
          *          K.A.NGUYEN, S.J.SU, T.L.WINDUS,           *
          *       TOGETHER WITH M.DUPUIS, J.A.MONTGOMERY       *
          *         J.COMPUT.CHEM.  14, 1347-1363(1993)        *
          **************** 64 BIT INTEL VERSION ****************

  SINCE 1993, STUDENTS AND POSTDOCS WORKING AT IOWA STATE UNIVERSITY
  AND ALSO IN THEIR VARIOUS JOBS AFTER LEAVING ISU HAVE MADE IMPORTANT
  CONTRIBUTIONS TO THE CODE:
     IVANA ADAMOVIC, CHRISTINE AIKENS, YURI ALEXEEV, POOJA ARORA,
     ANDREY ASADCHEV, ROB BELL, PRADIPTA BANDYOPADHYAY, JONATHAN BENTZ,
     COLLEEN BERTONI, BRETT BODE, KURT BRORSEN, CALEB CARLIN, GALINA CHABAN,
     WEI CHEN, CHEOL HO CHOI, PAUL DAY, ALBERT DEFUSCO, NUWAN DESILVA,
     TIM DUDLEY, DMITRI FEDOROV, ALEX FINDLATER, GRAHAM FLETCHER, 
     MARK FREITAG, KURT GLAESEMANN, ANASTASIA GUNINA,
     DAN KEMP, GRANT MERRILL, NORIYUKI MINEZAWA, JONATHAN MULLIN,
     TAKESHI NAGATA, SEAN NEDD, HEATHER NETZLOFF, BOSILJKA NJEGIC, RYAN OLSON,
     MIKE PAK, BUU PHAM,
     SPENCER PRUITT, LUKE ROSKOP, JIM SHOEMAKER, LYUDMILA SLIPCHENKO,
     TONY SMITH, SAROM SOK LEANG, JIE SONG, TETSUYA TAKETSUGU, SIMON WEBB,
     PENG XU, SOOHAENG YOO, FEDERICO ZAHARIEV

  ADDITIONAL CODE HAS BEEN PROVIDED BY COLLABORATORS IN OTHER GROUPS:
     IOWA STATE UNIVERSITY:
          JOE IVANIC, AARON WEST, LAIMUTIS BYTAUTAS, KLAUS RUEDENBERG
     UNIVERSITY OF TOKYO: KIMIHIKO HIRAO, TAKAHITO NAKAJIMA,
          TAKAO TSUNEDA, MUNEAKI KAMIYA, SUSUMU YANAGISAWA,
          KIYOSHI YAGI, MAHITO CHIBA, SEIKEN TOKURA, NAOAKI KAWAKAMI
     UNIVERSITY OF AARHUS: FRANK JENSEN
     UNIVERSITY OF IOWA: VISVALDAS KAIRYS, HUI LI
     NATIONAL INST. OF STANDARDS AND TECHNOLOGY: WALT STEVENS, DAVID GARMER
     UNIVERSITY OF PISA: BENEDETTA MENNUCCI, JACOPO TOMASI
     UNIVERSITY OF MEMPHIS: HENRY KURTZ, PRAKASHAN KORAMBATH
     UNIVERSITY OF ALBERTA: TOBY ZENG, MARIUSZ KLOBUKOWSKI
     UNIVERSITY OF NEW ENGLAND: MARK SPACKMAN
     MIE UNIVERSITY: HIROAKI UMEDA
     NAT. INST. OF ADVANCED INDUSTRIAL SCIENCE AND TECHNOLOGY: KAZUO KITAURA
     MICHIGAN STATE UNIVERSITY:
          KAROL KOWALSKI, MARTA WLOCH, JEFFREY GOUR, JESSE LUTZ,
          WEI LI, JUN SHEN, J. EMILIANO DEUSTUA, PIOTR PIECUCH
     UNIVERSITY OF MINNESOTA:
          YINAN SHU
     UNIVERSITY OF SILESIA: MONIKA MUSIAL, STANISLAW KUCHARSKI
     FACULTES UNIVERSITAIRES NOTRE-DAME DE LA PAIX:
          OLIVIER QUINET, BENOIT CHAMPAGNE
     UNIVERSITY OF CALIFORNIA - SANTA BARBARA: BERNARD KIRTMAN
     INSTITUTE FOR MOLECULAR SCIENCE:
          KAZUYA ISHIMURA, MICHIO KATOUDA, AND SHIGERU NAGASE
     UNIVERSITY OF NOTRE DAME: ANNA POMOGAEVA, DAN CHIPMAN
     KYUSHU UNIVERSITY:
          HARUYUKI NAKANO,
          FENG LONG GU, JACEK KORCHOWIEC, MARCIN MAKOWSKI, AND YURIKO AOKI,
          HIROTOSHI MORI AND EISAKU MIYOSHI
     PENNSYLVANIA STATE UNIVERSITY:
          TZVETELIN IORDANOV, CHET SWALINA, JONATHAN SKONE,
          SHARON HAMMES-SCHIFFER
     WASEDA UNIVERSITY:
          MASATO KOBAYASHI, TOMOKO AKAMA, TSUGUKI TOUMA,
          TAKESHI YOSHIKAWA, YASUHIRO IKABATA, JUNJI SEINO,
          YUYA NAKAJIMA, HIROMI NAKAI
     NANJING UNIVERSITY: SHUHUA LI
     UNIVERSITY OF NEBRASKA:
          PEIFENG SU, DEJUN SI, NANDUN THELLAMUREGE, YALI WANG, HUI LI
     UNIVERSITY OF ZURICH: ROBERTO PEVERATI, KIM BALDRIDGE
     N. COPERNICUS UNIVERSITY AND JACKSON STATE UNIVERSITY:
          MARIA BARYSZ
     UNIVERSITY OF COPENHAGEN: Jimmy Kromann, CASPER STEINMANN
     TOKYO INSTITUTE OF TECHNOLOGY: HIROYA NAKATA
     NAGOYA UNIVERSITY: YOSHIO NISHIMOTO, STEPHAN IRLE
     MOSCOW STATE UNIVERSITY: VLADIMIR MIRONOV
     A.N.NESMEYANOV INSTITUTE OF ORGANOELEMENT COMPOUNDS OF RUSSIAN ACADEMY OF SCIENCES:
          IGOR S. GERASIMOV

 EXECUTION OF GAMESS BEGUN Thu Apr 30 06:49:46 2026

            ECHO OF THE FIRST FEW INPUT CARDS -
 INPUT CARD>!                                                                               
 INPUT CARD>!   GAMESS Calculation input file                                               
 INPUT CARD>!                                                                               
 INPUT CARD>                                                                                
 INPUT CARD> $CONTRL SCFTYP=RHF MAXIT=200 RUNTYP=OPTIMIZE                                   
 INPUT CARD>         COORD=UNIQUE MULT=1                                                    
 INPUT CARD>         ICHARG=0 NZVAR=39                                                      
 INPUT CARD>         MOLPLT=.FALSE. PLTORB=.FALSE.  $END                                    
 INPUT CARD>                                                                                
 INPUT CARD> $SYSTEM TIMLIM=2879 MWORDS=250  $END                                           
 INPUT CARD>                                                                                
 INPUT CARD> $STATPT OPTTOL=0.0005 NSTEP=999 IHREP=0 $END                                   
 INPUT CARD>                                                                                
 INPUT CARD> $ZMAT DLC=.TRUE. AUTO=.TRUE.                                                   
 INPUT CARD>        IFZMAT(1)=3,1,4,3,5                                                     
 INPUT CARD>        FVALUE(1)=0.0                                                           
 INPUT CARD> $END                                                                           
 INPUT CARD>                                                                                
 INPUT CARD> $BASIS  GBASIS=N31 NGAUSS=6                                                    
 INPUT CARD>         NDFUNC=1   NPFUNC=0  $END                                              
 INPUT CARD>                                                                                
 INPUT CARD> $SCF    DIRSCF=.T. $END                                                        
 INPUT CARD>                                                                                
 INPUT CARD> $GUESS  GUESS=HUCKEL  $END                                                     
 INPUT CARD>                                                                                
 INPUT CARD> $DATA                                                                          
 INPUT CARD>Acetylacetone keto fixed carbonyl dihedral at 0 degrees                         
 INPUT CARD>C1                                                                              
 INPUT CARD>O     8.0    -1.19697    -0.01929     1.76202                                   
 INPUT CARD>O     8.0     0.67352    -0.05813    -1.52428                                   
 INPUT CARD>C     6.0    -0.00004     1.34813     0.25891                                   
 INPUT CARD>C     6.0    -1.19062     0.49154     0.68535                                   
 INPUT CARD>C     6.0     1.00447     0.50536    -0.52694                                   
 INPUT CARD>C     6.0    -2.31141     0.32237    -0.30887                                   
 INPUT CARD>C     6.0     2.40507     0.42079     0.02576                                   
 INPUT CARD>H     1.0     0.45099     1.76431     1.14983                                   
 INPUT CARD>H     1.0    -0.32220     2.15684    -0.38981                                   
 INPUT CARD>H     1.0    -2.76528     1.28707    -0.51781                                   
 INPUT CARD>H     1.0    -1.91818    -0.06402    -1.24195                                   
 INPUT CARD>H     1.0    -3.05782    -0.34880     0.09262                                   
 INPUT CARD>H     1.0     3.02735    -0.16833    -0.63309                                   
 INPUT CARD>H     1.0     2.82533     1.41563     0.14137                                   
 INPUT CARD>H     1.0     2.37716    -0.03419     1.01179                                   
 INPUT CARD> $END                                                                           
  250000000 WORDS OF MEMORY AVAILABLE

     BASIS OPTIONS
     -------------
     GBASIS=N31          IGAUSS=       6      POLAR=POPN31  
     NDFUNC=       1     NFFUNC=       0     DIFFSP=       F
     NPFUNC=       0      DIFFS=       F     BASNAM=        


     RUN TITLE
     ---------
 Acetylacetone keto fixed carbonyl dihedral at 0 degrees                         

 THE POINT GROUP OF THE MOLECULE IS C1      
 THE ORDER OF THE PRINCIPAL AXIS IS     0

 ATOM      ATOMIC                      COORDINATES (BOHR)
           CHARGE         X                   Y                   Z
 O           8.0    -2.2619453155       -0.0364528143        3.3297349849
 O           8.0     1.2727682473       -0.1098497717       -2.8804715286
 C           6.0    -0.0000755890        2.5475962958        0.4892689555
 C           6.0    -2.2499455555        0.9288759120        1.2951237057
 C           6.0     1.8981730629        0.9549919252       -0.9957722120
 C           6.0    -4.3679315453        0.6091909667       -0.5836796658
 C           6.0     4.5449232813        0.7951777984        0.0486793414
 H           1.0     0.8522475232        3.3340624574        2.1728636325
 H           1.0    -0.6088697132        4.0758365994       -0.7366340873
 H           1.0    -5.2256214793        2.4322096270       -0.9785190137
 H           1.0    -3.6248345951       -0.1209802577       -2.3469451905
 H           1.0    -5.7784419198       -0.6591364245        0.1750264210
 H           1.0     5.7208619689       -0.3180975755       -1.1963666256
 H           1.0     5.3390995249        2.6751528000        0.2671505629
 H           1.0     4.4921810290       -0.0646097315        1.9120058571

          INTERNUCLEAR DISTANCES (ANGS.)
          ------------------------------

                1 O          2 O          3 C          4 C          5 C     

   1 O       0.0000000    3.7815353    2.3583508 *  1.1917239 *  3.2188404  
   2 O       3.7815353    0.0000000    2.3687585 *  2.9427232 *  1.1923657 *
   3 C       2.3583508 *  2.3687585 *  0.0000000    1.5274417 *  1.5286798 *
   4 C       1.1917239 *  2.9427232 *  1.5274417 *  0.0000000    2.5076400 *
   5 C       3.2188404    1.1923657 *  1.5286798 *  2.5076400 *  0.0000000  
   6 C       2.3764035 *  3.2452748    2.5917155 *  1.5077341 *  3.3280775  
   7 C       4.0228052    2.3728156 *  2.5882180 *  3.6563713    1.5080815 *
   8 H       2.5043518 *  3.2437126    1.0818375 *  2.1285132 *  2.1686062 *
   9 H       3.1829447    2.6804053 *  1.0856503 *  2.1641041 *  2.1227916 *
  10 H       3.0600323    3.8272562    2.8729035 *  2.1354194 *  3.8499570  
  11 H       3.0896570    2.6070393 *  2.8153169 *  2.1336531 *  3.0622403  
  12 H       2.5215543 *  4.0769784    3.5010345    2.1316510 *  4.1970995  
  13 H       4.8583582    2.5193014 *  3.5014861    4.4682193    2.1347528 *
  14 H       4.5677565    3.0946154    2.8286194 *  4.1566466    2.1426061 *
  15 H       3.6520504    3.0552600    2.8510904 *  3.6210508    2.1314507 *

                6 C          7 C          8 H          9 H         10 H     

   1 O       2.3764035 *  4.0228052    2.5043518 *  3.1829447    3.0600323  
   2 O       3.2452748    2.3728156 *  3.2437126    2.6804053 *  3.8272562  
   3 C       2.5917155 *  2.5882180 *  1.0818375 *  1.0856503 *  2.8729035 *
   4 C       1.5077341 *  3.6563713    2.1285132 *  2.1641041 *  2.1354194 *
   5 C       3.3280775    1.5080815 *  2.1686062 *  2.1227916 *  3.8499570  
   6 C       0.0000000    4.7293601    3.4406177    2.7071734 *  1.0864161 *
   7 C       4.7293601    0.0000000    2.6243110 *  3.2595352    5.2705245  
   8 H       3.4406177    2.6243110 *  0.0000000    1.7670297 *  3.6541995  
   9 H       2.7071734 *  3.2595352    1.7670297 *  0.0000000    2.5964444 *
  10 H       1.0864161 *  5.2705245    3.6541995    2.5964444 *  0.0000000  
  11 H       1.0837737 *  4.5312934    3.8309749    2.8645268 *  1.7513998 *
  12 H       1.0811065 *  5.5172372    4.2302097    3.7409340    1.7703884 *
  13 H       5.3710579    1.0809154 *  3.6812405    4.0847382    5.9737795  
  14 H       5.2710560    1.0861357 *  2.6030866 *  3.2769635    5.6308051  
  15 H       4.8840523    1.0862969 *  2.6388990 *  3.7485516    5.5254044  

               11 H         12 H         13 H         14 H         15 H     

   1 O       3.0896570    2.5215543 *  4.8583582    4.5677565    3.6520504  
   2 O       2.6070393 *  4.0769784    2.5193014 *  3.0946154    3.0552600  
   3 C       2.8153169 *  3.5010345    3.5014861    2.8286194 *  2.8510904 *
   4 C       2.1336531 *  2.1316510 *  4.4682193    4.1566466    3.6210508  
   5 C       3.0622403    4.1970995    2.1347528 *  2.1426061 *  2.1314507 *
   6 C       1.0837737 *  1.0811065 *  5.3710579    5.2710560    4.8840523  
   7 C       4.5312934    5.5172372    1.0809154 *  1.0861357 *  1.0862969 *
   8 H       3.8309749    4.2302097    3.6812405    2.6030866 *  2.6388990 *
   9 H       2.8645268 *  3.7409340    4.0847382    3.2769635    3.7485516  
  10 H       1.7513998 *  1.7703884 *  5.9737795    5.6308051    5.5254044  
  11 H       0.0000000    1.7779078 *  4.9839601    5.1578896    4.8507916  
  12 H       1.7779078 *  0.0000000    6.1309476    6.1422344    5.5211286  
  13 H       4.9839601    6.1309476    0.0000000    1.7746914 *  1.7738012 *
  14 H       5.1578896    6.1422344    1.7746914 *  0.0000000    1.7494186 *
  15 H       4.8507916    5.5211286    1.7738012 *  1.7494186 *  0.0000000  

  * ... LESS THAN  3.000


     ATOMIC BASIS SET
     ----------------
 THE CONTRACTED PRIMITIVE FUNCTIONS HAVE BEEN UNNORMALIZED
 THE CONTRACTED BASIS FUNCTIONS ARE NOW NORMALIZED TO UNITY

  SHELL TYPE  PRIMITIVE        EXPONENT          CONTRACTION COEFFICIENT(S)

 O         

      1   S       1          5484.6716600    0.001831074430
      1   S       2           825.2349460    0.013950172200
      1   S       3           188.0469580    0.068445078098
      1   S       4            52.9645000    0.232714335992
      1   S       5            16.8975704    0.470192897984
      1   S       6             5.7996353    0.358520852987

      2   L       7            15.5396162   -0.110777549525    0.070874268231
      2   L       8             3.5999336   -0.148026262701    0.339752839147
      2   L       9             1.0137618    1.130767015354    0.727158577316

      3   L      10             0.2700058    1.000000000000    1.000000000000

      4   D      11             0.8000000    1.000000000000

 O         

      5   S      12          5484.6716600    0.001831074430
      5   S      13           825.2349460    0.013950172200
      5   S      14           188.0469580    0.068445078098
      5   S      15            52.9645000    0.232714335992
      5   S      16            16.8975704    0.470192897984
      5   S      17             5.7996353    0.358520852987

      6   L      18            15.5396162   -0.110777549525    0.070874268231
      6   L      19             3.5999336   -0.148026262701    0.339752839147
      6   L      20             1.0137618    1.130767015354    0.727158577316

      7   L      21             0.2700058    1.000000000000    1.000000000000

      8   D      22             0.8000000    1.000000000000

 C         

      9   S      23          3047.5248800    0.001834737132
      9   S      24           457.3695180    0.014037322813
      9   S      25           103.9486850    0.068842622264
      9   S      26            29.2101553    0.232184443216
      9   S      27             9.2866630    0.467941348435
      9   S      28             3.1639270    0.362311985337

     10   L      29             7.8682723   -0.119332419775    0.068999066591
     10   L      30             1.8812885   -0.160854151696    0.316423960957
     10   L      31             0.5442493    1.143456437840    0.744308290898

     11   L      32             0.1687145    1.000000000000    1.000000000000

     12   D      33             0.8000000    1.000000000000

 C         

     13   S      34          3047.5248800    0.001834737132
     13   S      35           457.3695180    0.014037322813
     13   S      36           103.9486850    0.068842622264
     13   S      37            29.2101553    0.232184443216
     13   S      38             9.2866630    0.467941348435
     13   S      39             3.1639270    0.362311985337

     14   L      40             7.8682723   -0.119332419775    0.068999066591
     14   L      41             1.8812885   -0.160854151696    0.316423960957
     14   L      42             0.5442493    1.143456437840    0.744308290898

     15   L      43             0.1687145    1.000000000000    1.000000000000

     16   D      44             0.8000000    1.000000000000

 C         

     17   S      45          3047.5248800    0.001834737132
     17   S      46           457.3695180    0.014037322813
     17   S      47           103.9486850    0.068842622264
     17   S      48            29.2101553    0.232184443216
     17   S      49             9.2866630    0.467941348435
     17   S      50             3.1639270    0.362311985337

     18   L      51             7.8682723   -0.119332419775    0.068999066591
     18   L      52             1.8812885   -0.160854151696    0.316423960957
     18   L      53             0.5442493    1.143456437840    0.744308290898

     19   L      54             0.1687145    1.000000000000    1.000000000000

     20   D      55             0.8000000    1.000000000000

 C         

     21   S      56          3047.5248800    0.001834737132
     21   S      57           457.3695180    0.014037322813
     21   S      58           103.9486850    0.068842622264
     21   S      59            29.2101553    0.232184443216
     21   S      60             9.2866630    0.467941348435
     21   S      61             3.1639270    0.362311985337

     22   L      62             7.8682723   -0.119332419775    0.068999066591
     22   L      63             1.8812885   -0.160854151696    0.316423960957
     22   L      64             0.5442493    1.143456437840    0.744308290898

     23   L      65             0.1687145    1.000000000000    1.000000000000

     24   D      66             0.8000000    1.000000000000

 C         

     25   S      67          3047.5248800    0.001834737132
     25   S      68           457.3695180    0.014037322813
     25   S      69           103.9486850    0.068842622264
     25   S      70            29.2101553    0.232184443216
     25   S      71             9.2866630    0.467941348435
     25   S      72             3.1639270    0.362311985337

     26   L      73             7.8682723   -0.119332419775    0.068999066591
     26   L      74             1.8812885   -0.160854151696    0.316423960957
     26   L      75             0.5442493    1.143456437840    0.744308290898

     27   L      76             0.1687145    1.000000000000    1.000000000000

     28   D      77             0.8000000    1.000000000000

 H         

     29   S      78            18.7311370    0.033494604338
     29   S      79             2.8253944    0.234726953484
     29   S      80             0.6401217    0.813757326146

     30   S      81             0.1612778    1.000000000000

 H         

     31   S      82            18.7311370    0.033494604338
     31   S      83             2.8253944    0.234726953484
     31   S      84             0.6401217    0.813757326146

     32   S      85             0.1612778    1.000000000000

 H         

     33   S      86            18.7311370    0.033494604338
     33   S      87             2.8253944    0.234726953484
     33   S      88             0.6401217    0.813757326146

     34   S      89             0.1612778    1.000000000000

 H         

     35   S      90            18.7311370    0.033494604338
     35   S      91             2.8253944    0.234726953484
     35   S      92             0.6401217    0.813757326146

     36   S      93             0.1612778    1.000000000000

 H         

     37   S      94            18.7311370    0.033494604338
     37   S      95             2.8253944    0.234726953484
     37   S      96             0.6401217    0.813757326146

     38   S      97             0.1612778    1.000000000000

 H         

     39   S      98            18.7311370    0.033494604338
     39   S      99             2.8253944    0.234726953484
     39   S     100             0.6401217    0.813757326146

     40   S     101             0.1612778    1.000000000000

 H         

     41   S     102            18.7311370    0.033494604338
     41   S     103             2.8253944    0.234726953484
     41   S     104             0.6401217    0.813757326146

     42   S     105             0.1612778    1.000000000000

 H         

     43   S     106            18.7311370    0.033494604338
     43   S     107             2.8253944    0.234726953484
     43   S     108             0.6401217    0.813757326146

     44   S     109             0.1612778    1.000000000000

 TOTAL NUMBER OF BASIS SET SHELLS             =   44
 NUMBER OF CARTESIAN GAUSSIAN BASIS FUNCTIONS =  121
 NUMBER OF ELECTRONS                          =   54
 CHARGE OF MOLECULE                           =    0
 SPIN MULTIPLICITY                            =    1
 NUMBER OF OCCUPIED ORBITALS (ALPHA)          =   27
 NUMBER OF OCCUPIED ORBITALS (BETA )          =   27
 TOTAL NUMBER OF ATOMS                        =   15
 THE NUCLEAR REPULSION ENERGY IS      296.4995824191

     $CONTRL OPTIONS
     ---------------
 SCFTYP=RHF          RUNTYP=OPTIMIZE     EXETYP=RUN     
 MPLEVL=       0     CITYP =NONE         CCTYP =NONE         VBTYP =NONE    
 DFTTYP=NONE         TDDFT =NONE    
 MULT  =       1     ICHARG=       0     NZVAR =      39     COORD =UNIQUE  
 PP    =NONE         RELWFN=NONE         LOCAL =NONE         NUMGRD=       F
 ISPHER=      -1     NOSYM =       0     MAXIT =     200     UNITS =ANGS    
 PLTORB=       F     MOLPLT=       F     AIMPAC=       F     FRIEND=        
 NPRINT=       7     IREST =       0     GEOM  =INPUT   
 NORMF =       0     NORMP =       0     ITOL  =      20     ICUT  =       9
 INTTYP=BEST         GRDTYP=BEST         QMTTOL= 1.0E-06

     $SYSTEM OPTIONS
     ---------------
  REPLICATED MEMORY=   250000000 WORDS (ON EVERY NODE).
 DISTRIBUTED MEMDDI=           0 MILLION WORDS IN AGGREGATE,
 MEMDDI DISTRIBUTED OVER   1 PROCESSORS IS           0 WORDS/PROCESSOR.
 TOTAL MEMORY REQUESTED ON EACH PROCESSOR=   250000000 WORDS.
 TIMLIM=        2879.00 MINUTES, OR       2.0 DAYS.
 PARALL= F  BALTYP=  DLB     KDIAG=    0  COREFL= F
 MXSEQ2=     300 MXSEQ3=     150  mem10=         0

          ----------------
          PROPERTIES INPUT
          ----------------

     MOMENTS            FIELD           POTENTIAL          DENSITY
 IEMOM =       1   IEFLD =       0   IEPOT =       0   IEDEN =       0
 WHERE =COMASS     WHERE =NUCLEI     WHERE =NUCLEI     WHERE =NUCLEI  
 OUTPUT=BOTH       OUTPUT=BOTH       OUTPUT=BOTH       OUTPUT=BOTH    
 IEMINT=       0   IEFINT=       0                     IEDINT=       0
                                                       MORB  =       0
          EXTRAPOLATION IN EFFECT
          SOSCF IN EFFECT
 ORBITAL PRINTING OPTION: NPREO=     1   121     2     1

     -------------------------------
     INTEGRAL TRANSFORMATION OPTIONS
     -------------------------------
     NWORD  =            0
     CUTOFF = 1.0E-09     MPTRAN =       0
     DIRTRF =       T     AOINTS =DUP     

          ----------------------
          INTEGRAL INPUT OPTIONS
          ----------------------
 NOPK  =       1 NORDER=       0 SCHWRZ=       T
 
 
 -----------------------------------------------
  STATISTICS ON AUTOMATIC COORDINATE GENERATION 
 -----------------------------------------------
  NUMBER OF USER SPECIFIED BONDS                              0
  NUMBER OF BONDS                                            14
  NUMBER OF ANGLES                                           24
  NUMBER OF TORSIONS                                         24
  NUMBER OF EXTRA COORD.                                      0
  NUMBER OF EXTRA COORD. FOR CONSTRAINTS                      0
  NUMBER OF CONSTRAINED COORD.                                1
 
  TOTAL NUMBER OF PRIMITIVES                                 62
 -----------------------------------------------

   --- ENCODED Z MATRIX ---
 COORD  TYPE   I   J   K   L   M   N
    1      3    1   4   3   5
    2      1    1   4
    3      1    2   5
    4      1    3   5
    5      1    3   4
    6      1    3   9
    7      1    3   8
    8      1    4   6
    9      1    5   7
   10      1    6  12
   11      1    6  11
   12      1    6  10
   13      1    7  15
   14      1    7  14
   15      1    7  13
   16      2    1   4   3
   17      2    1   4   6
   18      2    2   5   7
   19      2    2   5   3
   20      2    3   4   6
   21      2    3   5   7
   22      2    4   6  10
   23      2    4   3   9
   24      2    4   6  11
   25      2    4   3   5
   26      2    4   3   8
   27      2    4   6  12
   28      2    5   3   8
   29      2    5   3   9
   30      2    5   7  13
   31      2    5   7  14
   32      2    5   7  15
   33      2    8   3   9
   34      2   10   6  11
   35      2   10   6  12
   36      2   11   6  12
   37      2   13   7  14
   38      2   13   7  15
   39      2   14   7  15
   40      3    1   4   3   8
   41      3    1   4   6  10
   42      3    1   4   6  11
   43      3    1   4   3   9
   44      3    1   4   6  12
   45      3    2   5   7  15
   46      3    2   5   3   8
   47      3    2   5   3   9
   48      3    2   5   3   4
   49      3    2   5   7  13
   50      3    2   5   7  14
   51      3    3   5   7  13
   52      3    3   5   7  14
   53      3    3   5   7  15
   54      3    3   4   6  10
   55      3    3   4   6  11
   56      3    3   4   6  12
   57      3    4   3   5   7
   58      3    5   3   4   6
   59      3    6   4   3   8
   60      3    6   4   3   9
   61      3    7   5   3   8
   62      3    7   5   3   9

          INDEP./SYM. INTERNAL COORDINATES
          --------------------------------
 CRD  1=   1.0000 (  1)
 CRD  2=  -0.3520 ( 16) -0.2407 ( 17)  0.5925 ( 20)  0.1186 ( 22)  0.2598 ( 23)
          -0.2819 ( 25) -0.1523 ( 27)  0.1124 ( 28)  0.1262 ( 31) -0.1150 ( 32)
           0.2095 ( 48)  0.2920 ( 57)  0.1071 ( 61)  0.1225 ( 62)
 CRD  3=  -0.2571 (  4) -0.2139 (  5) -0.1578 (  8) -0.2407 (  9)  0.1238 ( 17)
           0.3066 ( 18)  0.2969 ( 19) -0.1266 ( 20) -0.6040 ( 21)  0.1076 ( 23)
          -0.2515 ( 25)  0.1103 ( 30) -0.1189 ( 31) -0.1739 ( 32)
 CRD  4=  -0.2562 (  8) -0.2199 (  9) -0.2603 ( 24)  0.3755 ( 25) -0.3228 ( 26)
          -0.2285 ( 29) -0.1667 ( 32)  0.2116 ( 41)  0.2028 ( 42)  0.1206 ( 44)
           0.1356 ( 46)  0.2870 ( 48)  0.1110 ( 51)  0.1507 ( 52)  0.1506 ( 53)
           0.2256 ( 57)  0.1472 ( 58)  0.1119 ( 59)  0.1633 ( 60)
 CRD  5=   0.3227 (  4) -0.1531 (  5)  0.1214 (  6) -0.1219 (  7) -0.3411 (  8)
           0.2762 (  9) -0.1518 ( 18) -0.1302 ( 20) -0.2975 ( 22) -0.1223 ( 26)
           0.1085 ( 28)  0.1252 ( 29)  0.3158 ( 31) -0.1672 ( 32)  0.1164 ( 34)
           0.1080 ( 35) -0.1324 ( 37) -0.1349 ( 41) -0.1698 ( 42)  0.1043 ( 47)
          -0.1406 ( 51)  0.1958 ( 57) -0.1301 ( 58) -0.1604 ( 59)  0.2227 ( 62)
 CRD  6=   0.1145 (  2)  0.1750 (  4)  0.3125 (  5)  0.2022 (  8)  0.2186 (  9)
           0.1760 ( 18) -0.1176 ( 21)  0.1973 ( 22) -0.3657 ( 24)  0.3424 ( 27)
           0.3907 ( 30) -0.2722 ( 32) -0.1850 ( 35) -0.1654 ( 37) -0.1197 ( 56)
           0.1004 ( 59)
 CRD  7=  -0.3558 (  8)  0.2670 (  9)  0.2865 ( 16) -0.3418 ( 17)  0.2539 ( 18)
          -0.2166 ( 19)  0.1405 ( 22) -0.4177 ( 27)  0.3071 ( 30) -0.2050 ( 31)
           0.1289 ( 32)  0.1268 ( 35)  0.1748 ( 36) -0.1579 ( 38)
 CRD  8=  -0.2792 (  4) -0.2902 (  5)  0.1426 (  8)  0.3253 (  9) -0.2867 ( 16)
           0.3101 ( 17)  0.3717 ( 18) -0.4062 ( 19) -0.1331 ( 22)  0.1627 ( 24)
          -0.1009 ( 26)  0.1408 ( 30)  0.1005 ( 32) -0.1091 ( 38) -0.1005 ( 39)
 CRD  9=   0.3511 (  4) -0.3752 (  5) -0.2922 ( 16)  0.2640 ( 17) -0.1667 ( 18)
           0.1889 ( 19)  0.3317 ( 22) -0.1430 ( 24) -0.1087 ( 26)  0.1114 ( 28)
           0.1253 ( 29)  0.1566 ( 30) -0.3320 ( 31)  0.1838 ( 32) -0.1228 ( 38)
 CRD 10=  -0.1868 (  4) -0.1685 (  5) -0.1023 (  7)  0.1177 (  9)  0.1367 ( 12)
           0.1229 ( 14) -0.1044 ( 15)  0.4622 ( 22) -0.1755 ( 23) -0.2066 ( 24)
           0.1225 ( 26) -0.2309 ( 27) -0.1507 ( 28) -0.2860 ( 30)  0.4601 ( 31)
           0.1674 ( 36)  0.1146 ( 38) -0.1620 ( 39) -0.1206 ( 48)
 CRD 11=  -0.1027 (  4)  0.1286 (  6) -0.1361 (  7) -0.1765 (  8)  0.1536 (  9)
           0.1004 ( 10) -0.1206 ( 11)  0.1522 ( 13)  0.1491 ( 23) -0.3885 ( 24)
           0.2808 ( 27) -0.2707 ( 30)  0.5123 ( 32)  0.1852 ( 34)  0.1300 ( 37)
          -0.1067 ( 38) -0.1751 ( 39) -0.1247 ( 42) -0.1134 ( 44)  0.1012 ( 48)
 CRD 12=   0.3766 (  2)  0.2860 (  3)  0.1632 (  4)  0.1724 (  5)  0.1274 (  6)
           0.1740 (  8)  0.1262 (  9) -0.1037 ( 10)  0.1014 ( 11)  0.1667 ( 16)
           0.1394 ( 19) -0.2116 ( 20) -0.1467 ( 21)  0.3132 ( 24) -0.1733 ( 27)
          -0.1167 ( 30)  0.2154 ( 32) -0.1831 ( 34) -0.1337 ( 39)  0.1161 ( 45)
           0.1886 ( 46)  0.1441 ( 48)  0.1098 ( 50)  0.1204 ( 51)  0.1332 ( 52)
           0.1395 ( 53)  0.1219 ( 57)  0.1664 ( 61)
 CRD 13=  -0.2026 (  2)  0.3775 (  3)  0.1622 (  4)  0.1839 (  7)  0.1008 ( 19)
           0.1161 ( 20) -0.1662 ( 21) -0.1083 ( 22)  0.1041 ( 27)  0.1913 ( 29)
          -0.1247 ( 30)  0.1166 ( 31)  0.1392 ( 32) -0.1286 ( 39)  0.2608 ( 41)
           0.2662 ( 42)  0.1764 ( 43)  0.2244 ( 44) -0.1211 ( 45) -0.1188 ( 46)
          -0.1174 ( 50) -0.1156 ( 52) -0.1193 ( 53)  0.1887 ( 54)  0.1942 ( 55)
           0.1524 ( 56)  0.2464 ( 60) -0.1204 ( 61)
 CRD 14=   0.1627 (  2)  0.2533 (  3) -0.1035 (  6)  0.3121 ( 23) -0.3352 ( 26)
           0.2887 ( 28) -0.3231 ( 29)  0.1279 ( 31) -0.1656 ( 40) -0.1799 ( 43)
          -0.1435 ( 45) -0.1881 ( 46) -0.1844 ( 47) -0.1080 ( 49) -0.1388 ( 50)
          -0.1123 ( 52) -0.1171 ( 53) -0.1264 ( 54) -0.1293 ( 55) -0.1155 ( 56)
          -0.1212 ( 59) -0.1355 ( 60) -0.2144 ( 61) -0.2107 ( 62)
 CRD 15=   0.3382 (  2) -0.2367 (  3) -0.1130 (  4)  0.1306 (  5)  0.2430 (  6)
          -0.2908 (  7) -0.1127 ( 20)  0.1386 ( 22) -0.1506 ( 26) -0.1613 ( 31)
           0.1025 ( 32)  0.1346 ( 43) -0.1536 ( 45) -0.1740 ( 49) -0.1593 ( 50)
          -0.2667 ( 51) -0.2521 ( 52) -0.2464 ( 53)  0.1885 ( 54)  0.1755 ( 55)
           0.1912 ( 56)  0.1842 ( 57)
 CRD 16=   0.1115 (  9) -0.2290 ( 10) -0.2553 ( 11) -0.2332 ( 12)  0.4411 ( 13)
           0.4294 ( 14)  0.4046 ( 15)  0.1118 ( 27) -0.2008 ( 30) -0.1557 ( 31)
          -0.1448 ( 32) -0.1110 ( 35)  0.1886 ( 37)  0.1719 ( 38)  0.1497 ( 39)
 CRD 17=  -0.1186 (  8) -0.4124 ( 10) -0.4418 ( 11) -0.4327 ( 12) -0.2437 ( 13)
          -0.2486 ( 14) -0.2322 ( 15)  0.1582 ( 22)  0.1453 ( 24)  0.1928 ( 27)
           0.1083 ( 30) -0.1514 ( 34) -0.1826 ( 35) -0.1682 ( 36)
 CRD 18=   0.4594 (  6)  0.2424 (  7)  0.1193 ( 22) -0.1234 ( 24) -0.1740 ( 25)
           0.1805 ( 28) -0.1331 ( 35)  0.1461 ( 36) -0.1023 ( 40)  0.1543 ( 44)
           0.1316 ( 45)  0.1774 ( 49)  0.1191 ( 50)  0.2002 ( 51)  0.1419 ( 52)
           0.1544 ( 53)  0.2111 ( 54)  0.2017 ( 55)  0.3022 ( 56) -0.1429 ( 58)
          -0.2452 ( 59) -0.2205 ( 60) -0.1090 ( 61)
 CRD 19=   0.1130 ( 11) -0.1210 ( 12) -0.4691 ( 13)  0.5344 ( 14)  0.3063 ( 37)
          -0.3590 ( 38)  0.1708 ( 45) -0.2306 ( 49)  0.1127 ( 50) -0.2444 ( 51)
           0.1569 ( 53)
 CRD 20=   0.4867 ( 11) -0.5416 ( 12) -0.1558 ( 14) -0.3027 ( 35)  0.3400 ( 36)
          -0.1174 ( 41) -0.1604 ( 42)  0.2251 ( 44) -0.1216 ( 54) -0.1646 ( 55)
           0.2208 ( 56)
 CRD 21=  -0.3617 ( 13) -0.2212 ( 14)  0.5792 ( 15)  0.2561 ( 37)  0.1482 ( 38)
          -0.4041 ( 39) -0.1970 ( 45)  0.2474 ( 50)  0.2402 ( 52) -0.2042 ( 53)
 CRD 22=  -0.5904 ( 10)  0.3453 ( 11)  0.2420 ( 12)  0.4073 ( 34) -0.2441 ( 35)
          -0.1631 ( 36) -0.2385 ( 41)  0.2094 ( 42) -0.2357 ( 54)  0.2122 ( 55)
 CRD 23=  -0.3896 (  6)  0.4265 (  7)  0.1146 ( 12)  0.1320 ( 13) -0.1469 ( 14)
          -0.1407 ( 23)  0.1481 ( 28) -0.1935 ( 40) -0.1450 ( 43)  0.1512 ( 46)
           0.2359 ( 47) -0.1518 ( 51) -0.1190 ( 52)  0.1142 ( 56)  0.1103 ( 57)
          -0.2568 ( 59) -0.2083 ( 60)  0.2207 ( 61)  0.3054 ( 62)
 CRD 24=  -0.4941 (  6) -0.5356 (  7)  0.1105 ( 23) -0.1064 ( 25)  0.1612 ( 28)
          -0.3328 ( 33) -0.1847 ( 40)  0.1062 ( 43)  0.1198 ( 46) -0.1402 ( 47)
           0.1149 ( 54)  0.1122 ( 55)  0.1366 ( 56) -0.2430 ( 59)  0.1094 ( 61)
          -0.1507 ( 62)
 CRD 25=   0.1103 (  3)  0.1664 (  4) -0.1092 (  5)  0.1989 (  6) -0.2332 (  7)
           0.1418 (  8) -0.1895 (  9)  0.1965 ( 10) -0.1273 ( 14) -0.2413 ( 15)
           0.2267 ( 16) -0.2555 ( 17)  0.3028 ( 18) -0.2797 ( 19) -0.1769 ( 23)
          -0.1726 ( 26)  0.1470 ( 27)  0.1253 ( 28)  0.1502 ( 29) -0.1763 ( 30)
          -0.1321 ( 35) -0.1024 ( 36)  0.1634 ( 37)  0.1360 ( 38) -0.1104 ( 41)
           0.1000 ( 43) -0.1033 ( 46)  0.1055 ( 47)  0.1293 ( 62)
 CRD 26=  -0.1345 (  2) -0.2340 (  4) -0.3063 (  5)  0.1158 (  8)  0.2522 ( 10)
           0.1481 ( 11)  0.1298 ( 12)  0.1201 ( 13)  0.2046 ( 15)  0.3184 ( 16)
          -0.2830 ( 17) -0.2359 ( 18)  0.2655 ( 19)  0.1297 ( 22)  0.1369 ( 24)
          -0.1041 ( 26)  0.2033 ( 27)  0.1679 ( 30)  0.1059 ( 33) -0.1001 ( 34)
          -0.1778 ( 35) -0.1975 ( 36) -0.1321 ( 37) -0.1629 ( 38)
 CRD 27=   0.5348 (  2) -0.4541 (  3) -0.1382 (  5) -0.1831 (  6)  0.2001 (  7)
          -0.1026 ( 11) -0.1651 ( 12)  0.1044 ( 13)  0.1777 ( 14) -0.1463 ( 17)
           0.1146 ( 20) -0.1133 ( 21) -0.1044 ( 24) -0.1107 ( 26)  0.1351 ( 29)
           0.1108 ( 31)  0.1214 ( 32)  0.1552 ( 34) -0.1550 ( 39)  0.1008 ( 43)
          -0.1266 ( 46)  0.1429 ( 60) -0.1409 ( 61)
 CRD 28=   0.4616 (  2)  0.5369 (  3) -0.2628 (  4) -0.1694 (  5) -0.1712 ( 11)
          -0.1119 ( 12) -0.1446 ( 13) -0.1436 ( 14)  0.1114 ( 15) -0.1099 ( 17)
          -0.1681 ( 18)  0.1387 ( 20)  0.1492 ( 21) -0.1030 ( 22) -0.1163 ( 24)
          -0.1055 ( 31)  0.1224 ( 33)  0.1654 ( 34)  0.1731 ( 39)
 CRD 29=  -0.1775 (  2)  0.1931 (  3) -0.1615 (  4)  0.1954 (  5)  0.1174 (  6)
          -0.1064 (  7)  0.3238 (  8) -0.4495 (  9) -0.1596 ( 10) -0.1579 ( 11)
           0.1896 ( 13)  0.1860 ( 15) -0.1369 ( 22) -0.1288 ( 23) -0.1173 ( 26)
          -0.1392 ( 27)  0.2008 ( 30)  0.1703 ( 31)  0.1542 ( 32)  0.1987 ( 36)
          -0.1568 ( 37) -0.2272 ( 38) -0.1507 ( 39)
 CRD 30=  -0.1702 (  2) -0.1543 (  3)  0.1066 (  4) -0.1458 (  7)  0.4666 (  8)
           0.2425 (  9) -0.1281 ( 10) -0.2775 ( 12)  0.1004 ( 13) -0.1651 ( 14)
          -0.1223 ( 15)  0.1261 ( 16) -0.1056 ( 22) -0.1844 ( 24) -0.1518 ( 27)
          -0.1335 ( 29)  0.1294 ( 33)  0.1465 ( 34)  0.2574 ( 35)  0.1949 ( 37)
           0.1305 ( 41)  0.1357 ( 42) -0.1784 ( 43)  0.1077 ( 45) -0.1292 ( 46)
           0.1577 ( 50) -0.1145 ( 51) -0.1281 ( 60)
 CRD 31=   0.2770 (  5) -0.1784 (  6) -0.2989 (  8)  0.1871 ( 11)  0.2308 ( 13)
          -0.2441 ( 14)  0.1035 ( 22) -0.1227 ( 26)  0.1022 ( 33) -0.1393 ( 34)
          -0.1066 ( 36)  0.1492 ( 37) -0.2009 ( 38)  0.3200 ( 45) -0.3530 ( 46)
          -0.1758 ( 47) -0.2112 ( 48)  0.2859 ( 50) -0.1529 ( 51)  0.1011 ( 53)
          -0.1389 ( 61)
 CRD 32=  -0.1188 (  2) -0.2961 (  4)  0.2178 (  7)  0.1711 (  8)  0.3864 (  9)
          -0.1989 ( 11)  0.2081 ( 12) -0.1506 ( 14)  0.1301 ( 19) -0.1106 ( 22)
           0.1185 ( 25) -0.1978 ( 26)  0.1369 ( 29) -0.1099 ( 32) -0.1049 ( 33)
           0.2027 ( 36)  0.1064 ( 37)  0.1386 ( 39) -0.1137 ( 41) -0.1717 ( 42)
           0.2533 ( 43) -0.1162 ( 54) -0.1741 ( 55)  0.2567 ( 60)
 CRD 33=  -0.2432 (  4)  0.2222 (  5)  0.1075 (  9) -0.1625 ( 10)  0.2998 ( 11)
          -0.1401 ( 12) -0.3020 ( 13)  0.1226 ( 14)  0.1170 ( 15) -0.1333 ( 23)
          -0.1346 ( 24) -0.1229 ( 26)  0.1906 ( 28)  0.1417 ( 29) -0.1114 ( 34)
           0.2209 ( 35) -0.1013 ( 36) -0.1811 ( 37)  0.1342 ( 38)  0.1211 ( 39)
          -0.1035 ( 40)  0.1300 ( 41) -0.2211 ( 44)  0.1838 ( 47)  0.1690 ( 49)
          -0.1554 ( 50)  0.1931 ( 51) -0.1313 ( 52)  0.1626 ( 54) -0.1885 ( 56)
          -0.1348 ( 59)  0.1606 ( 62)
 CRD 34=  -0.1647 (  6) -0.1063 (  7) -0.2349 ( 10)  0.2395 ( 12)  0.2635 ( 14)
          -0.2860 ( 15) -0.1242 ( 18) -0.1137 ( 22)  0.1185 ( 27)  0.1461 ( 30)
          -0.1343 ( 31)  0.2120 ( 33) -0.1747 ( 34)  0.1708 ( 36)  0.1891 ( 38)
          -0.2068 ( 39)  0.1407 ( 40)  0.1413 ( 41) -0.1427 ( 42)  0.1423 ( 44)
          -0.1702 ( 45) -0.1167 ( 46)  0.1023 ( 47)  0.1437 ( 49)  0.1724 ( 50)
           0.1270 ( 51)  0.1557 ( 52) -0.1870 ( 53)  0.1289 ( 54) -0.1551 ( 55)
           0.1298 ( 56)  0.1535 ( 59)  0.1195 ( 62)
 CRD 35=   0.2676 (  4) -0.2239 (  5) -0.1098 (  9) -0.2761 ( 10)  0.1824 ( 12)
          -0.1083 ( 13) -0.1437 ( 14)  0.2856 ( 15) -0.1635 ( 17)  0.1837 ( 18)
          -0.1094 ( 19) -0.1134 ( 22)  0.1236 ( 23)  0.1415 ( 27) -0.1146 ( 28)
          -0.1510 ( 30)  0.1108 ( 31) -0.1778 ( 34)  0.1561 ( 36) -0.1012 ( 37)
          -0.1266 ( 38)  0.1811 ( 39)  0.1313 ( 40)  0.1543 ( 41) -0.1778 ( 42)
           0.1869 ( 45) -0.1571 ( 50) -0.1766 ( 52)  0.1675 ( 53)  0.1797 ( 54)
          -0.1524 ( 55)  0.1086 ( 59)
 CRD 36=   0.1327 (  2) -0.1796 (  4) -0.2499 (  5)  0.2060 (  6)  0.1037 (  7)
          -0.2088 ( 10)  0.2305 ( 11)  0.2065 ( 13) -0.1479 ( 15) -0.1482 ( 17)
           0.1515 ( 20) -0.1330 ( 24)  0.1199 ( 25)  0.1401 ( 27) -0.1262 ( 32)
          -0.2371 ( 33) -0.1536 ( 34)  0.1648 ( 35)  0.1504 ( 37) -0.1065 ( 39)
          -0.1507 ( 40)  0.1294 ( 41) -0.1417 ( 42) -0.1574 ( 44) -0.1334 ( 45)
           0.1734 ( 46) -0.2066 ( 49) -0.1360 ( 51)  0.1304 ( 52)  0.1511 ( 54)
          -0.1200 ( 55) -0.1357 ( 56) -0.1705 ( 59)  0.1048 ( 61) -0.1662 ( 62)
 CRD 37=  -0.1084 (  2)  0.1212 (  3) -0.1527 (  5) -0.1685 (  6)  0.2709 (  7)
           0.1313 (  8) -0.1423 (  9) -0.1260 ( 12)  0.1253 ( 14)  0.1838 ( 16)
          -0.1937 ( 19) -0.2005 ( 20)  0.2307 ( 21)  0.2551 ( 23) -0.1008 ( 24)
          -0.1290 ( 28)  0.2301 ( 40) -0.1338 ( 41)  0.2081 ( 43) -0.2329 ( 44)
          -0.2269 ( 47)  0.1772 ( 49)  0.1076 ( 50) -0.1346 ( 53)  0.1557 ( 55)
           0.2370 ( 57) -0.2145 ( 58)
 CRD 38=  -0.1192 ( 16) -0.1157 ( 17)  0.1767 ( 19)  0.2361 ( 20) -0.2407 ( 21)
          -0.1068 ( 23)  0.5157 ( 25) -0.1957 ( 28) -0.1783 ( 29) -0.1159 ( 31)
           0.1131 ( 45) -0.2429 ( 47) -0.1818 ( 48)  0.2719 ( 49)  0.1329 ( 50)
          -0.1564 ( 52) -0.1762 ( 53)  0.1018 ( 57) -0.1071 ( 58) -0.1498 ( 59)
           0.2504 ( 61)
 CRD 39=   0.1146 (  4)  0.1611 (  5) -0.1430 (  6)  0.1158 ( 19)  0.1170 ( 20)
          -0.1673 ( 21)  0.1778 ( 25) -0.1169 ( 26) -0.1976 ( 28)  0.1619 ( 33)
           0.2085 ( 40) -0.1462 ( 41) -0.1099 ( 42)  0.1041 ( 43) -0.1987 ( 44)
          -0.1389 ( 45)  0.1714 ( 47)  0.2388 ( 48) -0.2387 ( 49) -0.1099 ( 50)
           0.2212 ( 52)  0.1922 ( 53)  0.1659 ( 54)  0.2022 ( 55)  0.1134 ( 56)
          -0.3015 ( 58) -0.1974 ( 60) -0.2425 ( 61) -0.1525 ( 62)

 THE DETERMINANT OF THE G MATRIX IS 10**(   -20)


                     --------------------
                     INTERNAL COORDINATES
                     --------------------

                 - - ATOMS - -         COORDINATE      COORDINATE
 NO.   TYPE    I  J  K  L  M  N        (BOHR,RAD)       (ANG,DEG)
 ----------------------------------------------------------------
   1 TORSION   1  4  3  5               1.6439172      94.1895165
   2 STRETCH   1  4                     2.2520317       1.1917239
   3 STRETCH   2  5                     2.2532444       1.1923657
   4 STRETCH   3  5                     2.8887859       1.5286798
   5 STRETCH   3  4                     2.8864463       1.5274417
   6 STRETCH   3  9                     2.0515816       1.0856503
   7 STRETCH   3  8                     2.0443764       1.0818375
   8 STRETCH   4  6                     2.8492043       1.5077341
   9 STRETCH   5  7                     2.8498608       1.5080815
  10 STRETCH   6 12                     2.0429951       1.0811065
  11 STRETCH   6 11                     2.0480353       1.0837737
  12 STRETCH   6 10                     2.0530288       1.0864161
  13 STRETCH   7 15                     2.0528035       1.0862969
  14 STRETCH   7 14                     2.0524989       1.0861357
  15 STRETCH   7 13                     2.0426339       1.0809154
  16 BEND      1  4  3                  2.0906709     119.7866181
  17 BEND      1  4  6                  2.1456298     122.9355305
  18 BEND      2  5  7                  2.1386484     122.5355255
  19 BEND      2  5  3                  2.1038200     120.5400049
  20 BEND      3  4  6                  2.0468146     117.2738367
  21 BEND      3  5  7                  2.0406885     116.9228383
  22 BEND      4  6 10                  1.9153110     109.7392375
  23 BEND      4  3  9                  1.9318603     110.6874398
  24 BEND      4  6 11                  1.9155989     109.7557322
  25 BEND      4  3  5                  1.9246758     110.2757997
  26 BEND      4  3  8                  1.8868179     108.1067010
  27 BEND      4  6 12                  1.9155835     109.7548518
  28 BEND      5  3  8                  1.9406510     111.1911105
  29 BEND      5  3  9                  1.8739035     107.3667643
  30 BEND      5  7 13                  1.9196735     109.9891873
  31 BEND      5  7 14                  1.9251673     110.3039584
  32 BEND      5  7 15                  1.9095269     109.4078345
  33 BEND      8  3  9                  1.9062959     109.2227085
  34 BEND     10  6 11                  1.8781960     107.6127054
  35 BEND     10  6 12                  1.9116100     109.5271830
  36 BEND     11  6 12                  1.9271956     110.4201739
  37 BEND     13  7 14                  1.9191295     109.9580230
  38 BEND     13  7 15                  1.9174864     109.8638806
  39 BEND     14  7 15                  1.8722983     107.2747933
  40 TORSION   1  4  3  8              -0.4810430     -27.5617333
  41 TORSION   1  4  6 10               2.0561329     117.8077372
  42 TORSION   1  4  6 11              -2.1664586    -124.1289348
  43 TORSION   1  4  3  9              -2.5682274    -147.1485936
  44 TORSION   1  4  6 12              -0.0454286      -2.6028670
  45 TORSION   2  5  7 15              -2.0625581    -118.1758725
  46 TORSION   2  5  3  8               3.1111389     178.2551279
  47 TORSION   2  5  3  9              -1.0877433     -62.3231023
  48 TORSION   2  5  3  4               1.0183907      58.3494889
  49 TORSION   2  5  7 13               0.0451754       2.5883610
  50 TORSION   2  5  7 14               2.1650042     124.0456056
  51 TORSION   3  5  7 13              -3.1044946    -177.8744363
  52 TORSION   3  5  7 14              -0.9846657     -56.4171917
  53 TORSION   3  5  7 15               1.0709572      61.3613302
  54 TORSION   3  4  6 10              -1.0982284     -62.9238544
  55 TORSION   3  4  6 11               0.9623654      55.1394735
  56 TORSION   3  4  6 12               3.0833954     176.6655413
  57 TORSION   4  3  5  7              -2.1152955    -121.1975024
  58 TORSION   5  3  4  6              -1.4853276     -85.1030006
  59 TORSION   6  4  3  8               2.6728976     153.1457495
  60 TORSION   6  4  3  9               0.5857131      33.5588893
  61 TORSION   7  5  3  8              -0.0225473      -1.2918634
  62 TORSION   7  5  3  9               2.0617558     118.1299063

     ------------------------------------------
     THE POINT GROUP IS C1 , NAXIS= 0, ORDER= 1
     ------------------------------------------

     DIMENSIONS OF THE SYMMETRY SUBSPACES ARE
 A   =  121

 ..... DONE SETTING UP THE RUN .....
 STEP CPU TIME =     0.02 TOTAL CPU TIME =          0.0 (      0.0 MIN)
 TOTAL WALL CLOCK TIME=          0.0 SECONDS, CPU UTILIZATION IS    50.00%


          -----------------------------
          STATIONARY POINT LOCATION RUN
          -----------------------------


           ** GEOMETRY CONSTRAINTS ARE BEING APPLIED. **

          TRANSFORMING DISPLACEMENT FROM INTERNALS TO CARTESIANS
          THE ROOT MEAN SQUARE ERROR IN ITERATION   1 IS   0.71446088
          THE ROOT MEAN SQUARE ERROR IN ITERATION   2 IS   0.11634883
          THE ROOT MEAN SQUARE ERROR IN ITERATION   3 IS   0.00532367
          THE ROOT MEAN SQUARE ERROR IN ITERATION   4 IS   0.00002119
          THE ROOT MEAN SQUARE ERROR IN ITERATION   5 IS   0.00000000
 WARNING! THE RADIUS IN CARTESIANS IS    5.53161
 OBTAINING INITIAL HESSIAN, HESS=GUESS   
 DIAGONAL GUESS HESSIAN IN INTERNAL COORDS IS
     1  0.2500     2  0.5723     3  0.5715     4  0.3681     5  0.3690
     6  0.3493     7  0.3519     8  0.3834     9  0.3832    10  0.3524
    11  0.3506    12  0.3488    13  0.3489    14  0.3490    15  0.3525
    16  0.2601    17  0.2616    18  0.2615    19  0.2600    20  0.2502
    21  0.2501    22  0.2256    23  0.2245    24  0.2258    25  0.2488
    26  0.2247    27  0.2259    28  0.2246    29  0.2244    30  0.2259
    31  0.2256    32  0.2256    33  0.2040    34  0.2039    35  0.2040
    36  0.2042    37  0.2041    38  0.2040    39  0.2038    40  0.2500
    41  0.2500    42  0.2500    43  0.2500    44  0.2500    45  0.2500
    46  0.2500    47  0.2500    48  0.2500    49  0.2500    50  0.2500
    51  0.2500    52  0.2500    53  0.2500    54  0.2500    55  0.2500
    56  0.2500    57  0.2500    58  0.2500    59  0.2500    60  0.2500
    61  0.2500    62  0.2500
 TRANSFORMING HESSIAN TO SYMMETRY COORDINATES

          PARAMETERS CONTROLLING GEOMETRY SEARCH ARE
          METHOD =QA                  UPHESS =BFGS    
          NNEG   =         0          NFRZ   =         0
          NSTEP  =       999          IFOLOW =         1
          HESS   =GUESS               RESTAR =         F
          IHREP  =         0          HSSEND =         F
          NPRT   =         0          NPUN   =         0
          OPTTOL = 5.000E-04          RMIN   = 1.500E-03
          RMAX   = 1.000E-01          RLIM   = 7.000E-02
          DXMAX  = 3.000E-01          PURIFY =         F
          MOVIE  =         F          TRUPD  =         T
          TRMAX  = 5.000E-01          TRMIN  = 5.000E-02
          ITBMAT =         5          STPT   =         F
          STSTEP = 1.000E-02          PROJCT=          T

 BEGINNING GEOMETRY SEARCH POINT NSERCH=   0 ...

 COORDINATES OF ALL ATOMS ARE (ANGS)
   ATOM   CHARGE       X              Y              Z
 ------------------------------------------------------------
 O           8.0  -0.7937561355  -0.4457870810   0.9933590131
 O           8.0   0.9430068067  -0.4599166737  -1.2216201128
 C           6.0  -0.2075750493   1.3868273364  -0.2852896204
 C           6.0  -1.1630884083   0.6288444851   0.6342398548
 C           6.0   0.9868239641   0.4468155827  -0.4485401493
 C           6.0  -2.6079314456   0.7827955977   0.2317603222
 C           6.0   2.1936177549   0.7199970307   0.4136259473
 H           1.0   0.5652917523   1.5986989516   0.4414562949
 H           1.0  -0.7946690859   2.2327265605  -0.6293995782
 H           1.0  -3.0028904605   1.7128799144   0.6308223860
 H           1.0  -2.6842427299   0.8307345763  -0.8482599524
 H           1.0  -3.1842915168  -0.0481111640   0.6141139526
 H           1.0   2.9803621244   0.0159578999   0.1818064170
 H           1.0   2.5466099750   1.7351778182   0.2571164379
 H           1.0   1.9166695029   0.6325452330   1.4603793940


                     --------------------
                     INTERNAL COORDINATES
                     --------------------

                 - - ATOMS - -         COORDINATE      COORDINATE
 NO.   TYPE    I  J  K  L  M  N        (BOHR,RAD)       (ANG,DEG)
 ----------------------------------------------------------------
   1 TORSION   1  4  3  5               0.0000000       0.0000000
   2 STRETCH   1  4                     2.2520317       1.1917239
   3 STRETCH   2  5                     2.2532444       1.1923657
   4 STRETCH   3  5                     2.8887859       1.5286798
   5 STRETCH   3  4                     2.8864463       1.5274417
   6 STRETCH   3  9                     2.0515816       1.0856503
   7 STRETCH   3  8                     2.0443764       1.0818375
   8 STRETCH   4  6                     2.8492043       1.5077341
   9 STRETCH   5  7                     2.8498608       1.5080815
  10 STRETCH   6 12                     2.0429951       1.0811065
  11 STRETCH   6 11                     2.0480353       1.0837737
  12 STRETCH   6 10                     2.0530288       1.0864161
  13 STRETCH   7 15                     2.0528035       1.0862969
  14 STRETCH   7 14                     2.0524989       1.0861357
  15 STRETCH   7 13                     2.0426339       1.0809154
  16 BEND      1  4  3                  2.0208623     115.7868803
  17 BEND      1  4  6                  2.0595252     118.0021013
  18 BEND      2  5  7                  2.1386484     122.5355255
  19 BEND      2  5  3                  2.1038200     120.5400049
  20 BEND      3  4  6                  1.9693644     112.8362666
  21 BEND      3  5  7                  2.0406885     116.9228383
  22 BEND      4  6 10                  1.9153110     109.7392375
  23 BEND      4  3  9                  1.8123149     103.8379962
  24 BEND      4  6 11                  1.9155989     109.7557322
  25 BEND      4  3  5                  1.8213199     104.3539437
  26 BEND      4  3  8                  1.7109358      98.0293990
  27 BEND      4  6 12                  1.9155835     109.7548518
  28 BEND      5  3  8                  1.1960741      68.5299957
  29 BEND      5  3  9                  2.6215451     150.2034712
  30 BEND      5  7 13                  1.9196735     109.9891873
  31 BEND      5  7 14                  1.9251673     110.3039584
  32 BEND      5  7 15                  1.9095269     109.4078345
  33 BEND      8  3  9                  2.0338280     116.5297608
  34 BEND     10  6 11                  1.8781960     107.6127054
  35 BEND     10  6 12                  1.9116100     109.5271830
  36 BEND     11  6 12                  1.9271956     110.4201739
  37 BEND     13  7 14                  1.9191295     109.9580230
  38 BEND     13  7 15                  1.9174864     109.8638806
  39 BEND     14  7 15                  1.8722983     107.2747933
  40 TORSION   1  4  3  8              -1.2180776     -69.7907047
  41 TORSION   1  4  6 10               2.4046151     137.7742990
  42 TORSION   1  4  6 11              -1.8179764    -104.1623731
  43 TORSION   1  4  3  9               2.9715018     170.2545135
  44 TORSION   1  4  6 12               0.3030536      17.3636947
  45 TORSION   2  5  7 15              -2.0625581    -118.1758725
  46 TORSION   2  5  3  8               3.0321649     173.7302504
  47 TORSION   2  5  3  9              -1.3974343     -80.0670848
  48 TORSION   2  5  3  4               1.4070556      80.6183489
  49 TORSION   2  5  7 13               0.0451754       2.5883610
  50 TORSION   2  5  7 14               2.1650042     124.0456056
  51 TORSION   3  5  7 13              -3.1044946    -177.8744363
  52 TORSION   3  5  7 14              -0.9846657     -56.4171917
  53 TORSION   3  5  7 15               1.0709572      61.3613302
  54 TORSION   3  4  6 10              -1.4467107     -82.8904162
  55 TORSION   3  4  6 11               0.6138831      35.1729117
  56 TORSION   3  4  6 12               2.7349131     156.6989795
  57 TORSION   4  3  5  7              -1.7266305     -98.9286425
  58 TORSION   5  3  4  6              -2.4484272    -140.2845451
  59 TORSION   6  4  3  8               2.6166805     149.9247501
  60 TORSION   6  4  3  9               0.5230746      29.9699684
  61 TORSION   7  5  3  8              -0.1015213      -5.8167409
  62 TORSION   7  5  3  9               1.7520649     100.3859239

          ********************
          1 ELECTRON INTEGRALS
          ********************
 ...... END OF ONE-ELECTRON INTEGRALS ......
 STEP CPU TIME =     0.03 TOTAL CPU TIME =          0.0 (      0.0 MIN)
 TOTAL WALL CLOCK TIME=          0.1 SECONDS, CPU UTILIZATION IS    62.50%

          -------------
          GUESS OPTIONS
          -------------
          GUESS =HUCKEL            NORB  =       0          NORDER=       0
          MIX   =       F          PRTMO =       F          PUNMO =       F
          TOLZ  = 1.0E-08          TOLE  = 1.0E-05
          SYMDEN=       F          PURIFY=       F

 INITIAL GUESS ORBITALS GENERATED BY HUCKEL   ROUTINE.
 HUCKEL GUESS REQUIRES    124942 WORDS.

 SYMMETRIES FOR INITIAL GUESS ORBITALS FOLLOW.   BOTH SET(S).
    27 ORBITALS ARE OCCUPIED (    7 CORE ORBITALS).
     8=A        9=A       10=A       11=A       12=A       13=A       14=A   
    15=A       16=A       17=A       18=A       19=A       20=A       21=A   
    22=A       23=A       24=A       25=A       26=A       27=A       28=A   
    29=A       30=A       31=A       32=A       33=A       34=A       35=A   
    36=A       37=A   
 ...... END OF INITIAL ORBITAL SELECTION ......
 STEP CPU TIME =     0.01 TOTAL CPU TIME =          0.1 (      0.0 MIN)
 TOTAL WALL CLOCK TIME=          0.1 SECONDS, CPU UTILIZATION IS    54.55%

                    ----------------------
                    AO INTEGRAL TECHNOLOGY
                    ----------------------
     S,P,L SHELL ROTATED AXIS INTEGRALS, REPROGRAMMED BY
        KAZUYA ISHIMURA (IMS) AND JOSE SIERRA (SYNSTAR).
     S,P,D,L SHELL ROTATED AXIS INTEGRALS PROGRAMMED BY
        KAZUYA ISHIMURA (INSTITUTE FOR MOLECULAR SCIENCE).
     S,P,D,F,G SHELL TO TOTAL QUARTET ANGULAR MOMENTUM SUM 5,
        ERIC PROGRAM BY GRAHAM FLETCHER (ELORET AND NASA ADVANCED
        SUPERCOMPUTING DIVISION, AMES RESEARCH CENTER).
     S,P,D,F,G,L SHELL GENERAL RYS QUADRATURE PROGRAMMED BY
        MICHEL DUPUIS (PACIFIC NORTHWEST NATIONAL LABORATORY).

          --------------------
          2 ELECTRON INTEGRALS
          --------------------

 DIRECT SCF METHOD SKIPS INTEGRAL STORAGE ON DISK.
 DIRECT TRANSFORMATION SKIPS AO INTEGRAL STORAGE ON DISK.
  ...... END OF TWO-ELECTRON INTEGRALS .....
 STEP CPU TIME =     0.01 TOTAL CPU TIME =          0.1 (      0.0 MIN)
 TOTAL WALL CLOCK TIME=          0.1 SECONDS, CPU UTILIZATION IS    58.33%

          --------------------------
                 RHF SCF CALCULATION
          --------------------------

     NUCLEAR ENERGY =       303.7024342087
     MAXIT =  200     NPUNCH=    2
     EXTRAP=T  DAMP=F  SHIFT=F  RSTRCT=F  DIIS=F  DEM=F  SOSCF=T
     DENSITY MATRIX CONV=  2.00E-05
     SOSCF WILL OPTIMIZE    2538 ORBITAL ROTATIONS, SOGTOL=   0.250
     MEMORY REQUIRED FOR RHF ITERS=    161709 WORDS.

 DIRECT SCF CALCULATION, SCHWRZ=T   FDIFF=T,  DIRTHR=  0.00E+00 NITDIR=10
 SCHWARZ INEQUALITY OVERHEAD:      7314 INTEGRALS, T=        0.00

                                                                                   NONZERO     BLOCKS
 ITER EX DEM     TOTAL ENERGY        E CHANGE  DENSITY CHANGE     ORB. GRAD      INTEGRALS    SKIPPED
   1  0  0     -342.4173693865  -342.4173693865   0.311779815   0.000000000       22749221     121613
          ---------------START SECOND ORDER SCF---------------
   2  1  0     -343.3691934664    -0.9518240799   0.206571975   0.082106682       22763446     125397
   3  2  0     -343.4168709434    -0.0476774770   0.112173534   0.079789390       22678286     132734
   4  3  0     -343.5790519796    -0.1621810361   0.030966296   0.009138441       22538854     140239
   5  4  0     -343.5820857666    -0.0030337870   0.009632209   0.003052977       22221245     152706
   6  5  0     -343.5823767375    -0.0002909709   0.004316002   0.000759952       21844714     163259
   7  6  0     -343.5824106135    -0.0000338760   0.001008263   0.000404766       21422257     175817
   8  7  0     -343.5824167846    -0.0000061711   0.000435364   0.000144045       20701069     194711
   9  8  0     -343.5824180415    -0.0000012569   0.000183036   0.000069170       20230017     204051
  10  9  0     -343.5824183261    -0.0000002847   0.000116421   0.000028335       19677156     216445
  11 10  0     -343.5824183813    -0.0000000552   0.000035655   0.000007498       19124987     227862
  12 11  0     -343.5824183873    -0.0000000060   0.000013608   0.000003067       18049422     246087
  13 12  0     -343.5824183880    -0.0000000007   0.000004108   0.000000839       17075343     261580

          -----------------
          DENSITY CONVERGED
          -----------------
     TIME TO FORM FOCK OPERATORS=       7.0 SECONDS (       0.5 SEC/ITER)
     FOCK TIME ON FIRST ITERATION=       0.6, LAST ITERATION=       0.4
     TIME TO SOLVE SCF EQUATIONS=       0.0 SECONDS (       0.0 SEC/ITER)

 FINAL RHF ENERGY IS     -343.5824183880 AFTER  13 ITERATIONS

          ------------
          EIGENVECTORS
          ------------

                      1          2          3          4          5
                  -20.5568   -20.5559   -11.3569   -11.3353   -11.2444
                     A          A          A          A          A   
    1  O  1  S    0.994654   0.002002  -0.000097  -0.000396  -0.000008
    2  O  1  S    0.021070   0.000077  -0.000432   0.000464  -0.000032
    3  O  1  X   -0.000456   0.000009  -0.000126  -0.000085   0.000007
    4  O  1  Y    0.001482   0.000010  -0.000065   0.000316  -0.000001
    5  O  1  Z   -0.000390  -0.000013   0.000076  -0.000123  -0.000006
    6  O  1  S    0.004755  -0.000096   0.001356  -0.001612   0.000425
    7  O  1  X   -0.000003  -0.000013   0.000419   0.000141  -0.000038
    8  O  1  Y    0.000050  -0.000020   0.000282  -0.001296   0.000128
    9  O  1  Z   -0.000041   0.000027  -0.000303  -0.000047  -0.000013
   10  O  1 XX   -0.003933   0.000025  -0.000193   0.000035  -0.000058
   11  O  1 YY   -0.003701   0.000027  -0.000319  -0.000026   0.000003
   12  O  1 ZZ   -0.004169   0.000031  -0.000365   0.000334  -0.000007
   13  O  1 XY   -0.000143   0.000001   0.000042  -0.000019   0.000001
   14  O  1 XZ    0.000000   0.000010  -0.000148   0.000125   0.000013
   15  O  1 YZ   -0.000268   0.000009  -0.000093  -0.000018   0.000010
   16  O  2  S   -0.001987   0.994664  -0.000404   0.000026   0.000005
   17  O  2  S   -0.000036   0.021019   0.000410   0.000147  -0.000051
   18  O  2  X   -0.000013   0.000092   0.000056   0.000003  -0.000019
   19  O  2  Y   -0.000006   0.001210   0.000293   0.000026   0.000000
   20  O  2  Z    0.000008   0.001033   0.000229  -0.000023  -0.000014
   21  O  2  S    0.000030   0.004881  -0.001733  -0.001051  -0.000206
   22  O  2  X    0.000029  -0.000002  -0.000248   0.000346  -0.000353
   23  O  2  Y    0.000027   0.000104  -0.000929  -0.000379   0.000105
   24  O  2  Z   -0.000010   0.000068  -0.000538  -0.000135  -0.000109
   25  O  2 XX    0.000026  -0.004011   0.000005   0.000082   0.000016
   26  O  2 YY    0.000025  -0.003810   0.000110   0.000022   0.000037
   27  O  2 ZZ    0.000019  -0.003942   0.000221   0.000053  -0.000028
   28  O  2 XY   -0.000001  -0.000073   0.000059   0.000052  -0.000063
   29  O  2 XZ    0.000012   0.000118  -0.000091   0.000042   0.000013
   30  O  2 YZ   -0.000006   0.000383  -0.000020   0.000006   0.000084
   31  C  3  S   -0.000004  -0.000007   0.002275   0.003059  -0.002004
   32  C  3  S    0.000010  -0.000023   0.000713   0.000488  -0.000177
   33  C  3  X    0.000016  -0.000020  -0.000010   0.000003  -0.000120
   34  C  3  Y    0.000046   0.000033  -0.000083  -0.000035   0.000074
   35  C  3  Z   -0.000030   0.000011   0.000007   0.000034  -0.000034
   36  C  3  S   -0.000074   0.000039   0.001586   0.000958   0.000224
   37  C  3  X    0.000188  -0.000118   0.001531  -0.003094   0.000303
   38  C  3  Y   -0.000069  -0.000014  -0.000023   0.000833  -0.001070
   39  C  3  Z   -0.000043   0.000083  -0.000690   0.000467  -0.000230
   40  C  3 XX   -0.000009   0.000004  -0.000342  -0.000186  -0.000039
   41  C  3 YY   -0.000053  -0.000052  -0.000268  -0.000163   0.000014
   42  C  3 ZZ   -0.000037  -0.000022  -0.000067  -0.000261  -0.000051
   43  C  3 XY   -0.000028   0.000013   0.000280  -0.000025  -0.000044
   44  C  3 XZ   -0.000003   0.000031   0.000023   0.000167  -0.000058
   45  C  3 YZ    0.000028  -0.000023  -0.000042   0.000131   0.000020
   46  C  4  S   -0.000010   0.000010  -0.000226   0.995834   0.000009
   47  C  4  S    0.000337   0.000029  -0.000395   0.027178   0.000018
   48  C  4  X   -0.000065   0.000018  -0.000118   0.000319   0.000034
   49  C  4  Y    0.000162  -0.000009   0.000023  -0.000531   0.000026
   50  C  4  Z   -0.000025  -0.000009   0.000019   0.000136   0.000021
   51  C  4  S   -0.000110  -0.000134   0.000911  -0.010818  -0.000255
   52  C  4  X   -0.000209  -0.000158   0.001346   0.001386  -0.000742
   53  C  4  Y    0.000542  -0.000014   0.000167  -0.001991   0.000283
   54  C  4  Z   -0.000326   0.000058  -0.000459   0.002663  -0.000125
   55  C  4 XX   -0.000115   0.000017  -0.000007  -0.001586  -0.000019
   56  C  4 YY   -0.000691   0.000011  -0.000033  -0.001185   0.000014
   57  C  4 ZZ   -0.000091   0.000023  -0.000099  -0.001996   0.000004
   58  C  4 XY    0.000272  -0.000001   0.000002  -0.000372   0.000014
   59  C  4 XZ   -0.000082   0.000003  -0.000103   0.000099   0.000013
   60  C  4 YZ    0.000243   0.000014  -0.000078  -0.000554   0.000006
   61  C  5  S    0.000010  -0.000016   0.995891   0.000086  -0.003020
   62  C  5  S    0.000072   0.000335   0.027004  -0.000368   0.000013
   63  C  5  X    0.000006   0.000016  -0.000505   0.000106  -0.000009
   64  C  5  Y   -0.000015   0.000125   0.000048  -0.000020   0.000069
   65  C  5  Z    0.000001   0.000099   0.000209  -0.000008   0.000029
   66  C  5  S   -0.000281  -0.000141  -0.011059   0.002877   0.004080
   67  C  5  X    0.000067   0.000029   0.000436  -0.002091   0.002659
   68  C  5  Y    0.000048   0.000602  -0.002656   0.000405  -0.000116
   69  C  5  Z   -0.000005   0.000587  -0.003202  -0.000362   0.001373
   70  C  5 XX   -0.000003  -0.000042  -0.001668   0.000009  -0.000443
   71  C  5 YY   -0.000002  -0.000522  -0.001252  -0.000050  -0.000188
   72  C  5 ZZ   -0.000004  -0.000396  -0.001387  -0.000095  -0.000296
   73  C  5 XY   -0.000006  -0.000022  -0.000094  -0.000024  -0.000041
   74  C  5 XZ    0.000017  -0.000029   0.000164  -0.000064  -0.000205
   75  C  5 YZ    0.000005  -0.000476   0.000796   0.000058  -0.000060
   76  C  6  S   -0.000001   0.000002  -0.000024   0.003016  -0.000004
   77  C  6  S    0.000022   0.000009  -0.000098   0.000121   0.000038
   78  C  6  X   -0.000024  -0.000001  -0.000008  -0.000034  -0.000016
   79  C  6  Y    0.000016   0.000007  -0.000052   0.000083   0.000001
   80  C  6  Z   -0.000018   0.000002  -0.000018   0.000001  -0.000001
   81  C  6  S   -0.000140  -0.000073   0.000777   0.003812  -0.000484
   82  C  6  X   -0.000178  -0.000035   0.000388   0.002017  -0.000223
   83  C  6  Y    0.000000  -0.000031   0.000221  -0.000334  -0.000017
   84  C  6  Z    0.000040  -0.000044   0.000341  -0.000064  -0.000104
   85  C  6 XX   -0.000027  -0.000002  -0.000003  -0.000422  -0.000007
   86  C  6 YY   -0.000020   0.000001  -0.000021  -0.000148   0.000010
   87  C  6 ZZ   -0.000028   0.000002  -0.000035  -0.000146   0.000004
   88  C  6 XY    0.000047   0.000000  -0.000006   0.000042  -0.000002
   89  C  6 XZ   -0.000010  -0.000005   0.000031  -0.000167  -0.000003
   90  C  6 YZ    0.000013  -0.000001  -0.000001   0.000067  -0.000002
   91  C  7  S   -0.000001   0.000001   0.002681   0.000002   0.995707
   92  C  7  S   -0.000013   0.000020   0.000057   0.000002   0.029123
   93  C  7  X   -0.000009   0.000011   0.000039  -0.000013  -0.000332
   94  C  7  Y   -0.000008   0.000015   0.000069   0.000002   0.000194
   95  C  7  Z   -0.000004   0.000021   0.000039   0.000023  -0.000020
   96  C  7  S    0.000084  -0.000250   0.004081   0.000396  -0.016713
   97  C  7  X   -0.000004   0.000181  -0.002072   0.000094   0.001618
   98  C  7  Y    0.000005  -0.000019  -0.000081  -0.000261  -0.000200
   99  C  7  Z    0.000019   0.000036  -0.000527  -0.000476   0.000555
  100  C  7 XX    0.000001   0.000013  -0.000298  -0.000030  -0.001899
  101  C  7 YY    0.000006  -0.000022  -0.000205   0.000022  -0.001875
  102  C  7 ZZ   -0.000003  -0.000033  -0.000321   0.000020  -0.001920
  103  C  7 XY    0.000003  -0.000031  -0.000055   0.000004  -0.000063
  104  C  7 XZ   -0.000004  -0.000002  -0.000261   0.000038  -0.000043
  105  C  7 YZ    0.000002  -0.000020  -0.000148   0.000035  -0.000011
  106  H  8  S    0.000010  -0.000037   0.000417  -0.000000   0.000080
  107  H  8  S   -0.000043  -0.000092   0.000171   0.000927   0.001228
  108  H  9  S    0.000008  -0.000007   0.000071  -0.000180   0.000093
  109  H  9  S    0.000036   0.000006  -0.000187  -0.000850   0.000393
  110  H 10  S    0.000010   0.000008  -0.000069  -0.000159   0.000014
  111  H 10  S   -0.000080   0.000021  -0.000150   0.000578   0.000022
  112  H 11  S    0.000019   0.000001  -0.000008  -0.000161   0.000022
  113  H 11  S    0.000006  -0.000020   0.000124  -0.000193  -0.000069
  114  H 12  S    0.000009   0.000001  -0.000025  -0.000108   0.000011
  115  H 12  S   -0.000072  -0.000016   0.000158   0.000013   0.000005
  116  H 13  S   -0.000007   0.000008  -0.000078  -0.000044   0.000149
  117  H 13  S    0.000004  -0.000054   0.000166  -0.000118   0.002196
  118  H 14  S   -0.000005   0.000014  -0.000161   0.000007   0.000231
  119  H 14  S   -0.000019  -0.000025   0.000198   0.000015   0.002687
  120  H 15  S    0.000013   0.000013  -0.000194   0.000019   0.000243
  121  H 15  S   -0.000056   0.000010  -0.000157   0.000171   0.002730

                      6          7          8          9         10
                  -11.2381   -11.2344    -1.4174    -1.3962    -1.1017
                     A          A          A          A          A   
    1  O  1  S    0.000038  -0.000020  -0.159737   0.107470   0.046452
    2  O  1  S    0.000070  -0.000169   0.348708  -0.235231  -0.101945
    3  O  1  X    0.000015   0.000034  -0.031813   0.026770   0.021591
    4  O  1  Y   -0.000014  -0.000010   0.105751  -0.070312   0.002143
    5  O  1  Z   -0.000028   0.000020  -0.041574   0.024282  -0.009225
    6  O  1  S   -0.001094   0.000301   0.318677  -0.216811  -0.117671
    7  O  1  X   -0.000325   0.000132  -0.009449   0.009703   0.005646
    8  O  1  Y   -0.000124   0.000207   0.040401  -0.028287  -0.000437
    9  O  1  Z    0.000334  -0.000139  -0.016457   0.007686  -0.002704
   10  O  1 XX    0.000134  -0.000025  -0.000893   0.000452  -0.000618
   11  O  1 YY    0.000171   0.000001   0.011445  -0.008018   0.000152
   12  O  1 ZZ    0.000032  -0.000145  -0.000780   0.001241   0.001595
   13  O  1 XY   -0.000035  -0.000008  -0.004858   0.003526   0.001753
   14  O  1 XZ   -0.000076   0.000062   0.001291  -0.001558   0.000026
   15  O  1 YZ   -0.000071  -0.000059  -0.006217   0.003862  -0.000603
   16  O  2  S   -0.000008  -0.000021  -0.101167  -0.164511   0.057944
   17  O  2  S   -0.000099  -0.000098   0.220667   0.360180  -0.134933
   18  O  2  X    0.000042  -0.000011   0.000317   0.006212  -0.005128
   19  O  2  Y   -0.000060   0.000003   0.057486   0.091881  -0.000125
   20  O  2  Z   -0.000012   0.000007   0.050567   0.076568  -0.000285
   21  O  2  S   -0.000349   0.000702   0.206965   0.334672  -0.115837
   22  O  2  X    0.000445  -0.000004  -0.001284   0.003763  -0.000964
   23  O  2  Y   -0.000104   0.000122   0.023075   0.035268   0.004994
   24  O  2  Z    0.000059   0.000110   0.019163   0.029052   0.004137
   25  O  2 XX    0.000022  -0.000059  -0.001973  -0.003050  -0.002167
   26  O  2 YY   -0.000080  -0.000044   0.004434   0.007387  -0.002810
   27  O  2 ZZ   -0.000072  -0.000041   0.003111   0.004390  -0.002290
   28  O  2 XY    0.000003  -0.000005   0.000278   0.000972  -0.000093
   29  O  2 XZ    0.000113  -0.000001  -0.000245   0.000937  -0.000902
   30  O  2 YZ    0.000114   0.000010   0.006413   0.010348  -0.001974
   31  C  3  S    0.995807   0.003141  -0.028040  -0.004210  -0.131478
   32  C  3  S    0.029673  -0.000085   0.047511   0.006832   0.240106
   33  C  3  X    0.000545   0.000113   0.002208   0.022287   0.053276
   34  C  3  Y   -0.000179   0.000016  -0.027405  -0.005712  -0.025796
   35  C  3  Z    0.000705  -0.000022   0.013895  -0.014540   0.053257
   36  C  3  S   -0.021259   0.000104   0.037837   0.003899   0.219743
   37  C  3  X   -0.002547  -0.000780   0.010571  -0.007827   0.012225
   38  C  3  Y    0.003862  -0.000066  -0.016381   0.002953  -0.009790
   39  C  3  Z   -0.003643   0.000137   0.002910  -0.000223   0.024238
   40  C  3 XX   -0.001675   0.000017   0.004228   0.002142   0.015770
   41  C  3 YY   -0.001657  -0.000036   0.003462   0.001500   0.001014
   42  C  3 ZZ   -0.001836  -0.000024   0.001454  -0.001826   0.000739
   43  C  3 XY   -0.000195   0.000013  -0.001029  -0.005751  -0.007713
   44  C  3 XZ    0.000177  -0.000025  -0.002510   0.000725   0.007007
   45  C  3 YZ   -0.000018  -0.000052  -0.002701   0.003196  -0.003726
   46  C  4  S   -0.003293  -0.003342  -0.099337   0.063028  -0.036837
   47  C  4  S   -0.000112   0.000010   0.187583  -0.119924   0.075463
   48  C  4  X    0.000177  -0.000024   0.049915  -0.026396   0.024260
   49  C  4  Y    0.000130   0.000121  -0.130005   0.091654   0.092408
   50  C  4  Z   -0.000040   0.000032   0.037694  -0.031877  -0.065304
   51  C  4  S    0.006243   0.003537   0.050267  -0.032946   0.041442
   52  C  4  X    0.002537  -0.002272  -0.007009   0.000585   0.002736
   53  C  4  Y    0.000860  -0.000042   0.020708  -0.014948   0.012255
   54  C  4  Z   -0.001936  -0.000324  -0.005827   0.004892  -0.006366
   55  C  4 XX   -0.000140  -0.000484  -0.009324   0.006663   0.010628
   56  C  4 YY   -0.000243  -0.000177   0.017671  -0.012204  -0.006024
   57  C  4 ZZ   -0.000274  -0.000198  -0.010159   0.007122   0.002113
   58  C  4 XY   -0.000060   0.000019  -0.012815   0.008863   0.008077
   59  C  4 XZ    0.000076  -0.000110   0.003898  -0.003815  -0.006390
   60  C  4 YZ    0.000162   0.000040  -0.013295   0.008743  -0.001952
   61  C  5  S   -0.002470  -0.000025  -0.069456  -0.097359  -0.075249
   62  C  5  S    0.000082  -0.000094   0.133976   0.186332   0.152770
   63  C  5  X    0.000032  -0.000050  -0.012890   0.000544  -0.014267
   64  C  5  Y    0.000079  -0.000017  -0.066315  -0.116661   0.137577
   65  C  5  Z    0.000113  -0.000012  -0.052858  -0.100138   0.110404
   66  C  5  S    0.005395   0.000536   0.029702   0.059207   0.095303
   67  C  5  X   -0.003775   0.000191   0.011152  -0.000002   0.002280
   68  C  5  Y    0.001361   0.000683   0.014086   0.028038   0.040522
   69  C  5  Z   -0.000384   0.000519   0.018173   0.019427   0.034822
   70  C  5 XX   -0.000345  -0.000008  -0.007848  -0.015469   0.012546
   71  C  5 YY   -0.000318  -0.000042   0.005362   0.008817  -0.001227
   72  C  5 ZZ   -0.000115  -0.000025   0.001285   0.002130  -0.002811
   73  C  5 XY    0.000269  -0.000015   0.000421   0.001553  -0.008451
   74  C  5 XZ    0.000075   0.000018  -0.000067   0.001654   0.005335
   75  C  5 YZ    0.000006  -0.000025   0.014798   0.023774   0.002391
   76  C  6  S   -0.003170   0.995684  -0.014831   0.010148  -0.028350
   77  C  6  S   -0.000146   0.028909   0.027543  -0.017966   0.051778
   78  C  6  X   -0.000099   0.000220   0.020949  -0.013654   0.018213
   79  C  6  Y    0.000011   0.000173  -0.007121   0.005303   0.007899
   80  C  6  Z   -0.000056  -0.000009   0.006429  -0.004767  -0.003298
   81  C  6  S   -0.000135  -0.015696   0.010898  -0.012366   0.048341
   82  C  6  X   -0.000124  -0.001102  -0.000474  -0.001875   0.003626
   83  C  6  Y   -0.000121  -0.000154  -0.005756   0.003337   0.004980
   84  C  6  Z    0.000648  -0.000222   0.001048  -0.001420  -0.002157
   85  C  6 XX   -0.000020  -0.001941   0.005705  -0.003592   0.002604
   86  C  6 YY   -0.000003  -0.001886  -0.000299   0.000314  -0.000005
   87  C  6 ZZ    0.000016  -0.001922   0.000322  -0.000090   0.000890
   88  C  6 XY    0.000021   0.000012  -0.001635   0.001141   0.000660
   89  C  6 XZ    0.000023  -0.000043   0.002124  -0.001461  -0.000059
   90  C  6 YZ   -0.000050  -0.000008  -0.000729   0.000524   0.000512
   91  C  7  S    0.001965   0.000026  -0.011203  -0.014610  -0.088469
   92  C  7  S   -0.000069   0.000055   0.020905   0.026743   0.161249
   93  C  7  X   -0.000022   0.000041  -0.012350  -0.014688  -0.049790
   94  C  7  Y    0.000043   0.000010  -0.004565  -0.007688   0.011682
   95  C  7  Z    0.000033   0.000013  -0.009264  -0.014802  -0.014544
   96  C  7  S    0.001141  -0.000667   0.000411   0.007996   0.142828
   97  C  7  X    0.000543   0.000209   0.002046   0.002827  -0.012833
   98  C  7  Y   -0.000927  -0.000140  -0.001859  -0.004707   0.012723
   99  C  7  Z   -0.000628   0.000095   0.000425  -0.001744   0.003643
  100  C  7 XX   -0.000067  -0.000013   0.002728   0.003091   0.007763
  101  C  7 YY   -0.000029   0.000006   0.000011   0.000221   0.002406
  102  C  7 ZZ   -0.000020   0.000011   0.001518   0.002353   0.002928
  103  C  7 XY    0.000003   0.000009   0.001128   0.001713  -0.001147
  104  C  7 XZ    0.000039  -0.000013   0.002345   0.003707   0.001883
  105  C  7 YZ    0.000077   0.000018   0.000967   0.001815  -0.000537
  106  H  8  S    0.000322  -0.000000   0.016067   0.003456   0.136220
  107  H  8  S    0.005235   0.000206  -0.007186  -0.007059   0.012710
  108  H  9  S   -0.000244  -0.000104   0.006917  -0.001038   0.062420
  109  H  9  S    0.000833   0.000052   0.004210  -0.000716   0.014335
  110  H 10  S    0.000022   0.000145   0.004460  -0.002842   0.017012
  111  H 10  S   -0.000141   0.002703  -0.000842   0.001205   0.000943
  112  H 11  S    0.000007   0.000169   0.004898  -0.003004   0.019140
  113  H 11  S    0.000422   0.002560   0.000499  -0.000191   0.002416
  114  H 12  S   -0.000024   0.000151   0.006702  -0.004683   0.010685
  115  H 12  S   -0.000051   0.002420  -0.000940   0.000029   0.000878
  116  H 13  S   -0.000155   0.000009   0.004782   0.006837   0.038805
  117  H 13  S   -0.000520  -0.000003   0.000188   0.000199   0.008812
  118  H 14  S    0.000054   0.000035   0.003783   0.004607   0.053874
  119  H 14  S   -0.000193   0.000085   0.000583   0.000376   0.005007
  120  H 15  S    0.000089  -0.000003   0.004206   0.004213   0.054200
  121  H 15  S   -0.000296   0.000090   0.001991  -0.000793   0.004202

                     11         12         13         14         15
                   -1.0277    -0.9761    -0.7913    -0.7216    -0.6863
                     A          A          A          A          A   
    1  O  1  S    0.049536  -0.000243  -0.039318  -0.075604   0.036999
    2  O  1  S   -0.112838   0.001024   0.091555   0.173163  -0.084892
    3  O  1  X   -0.029104  -0.047324   0.017460   0.099261  -0.052119
    4  O  1  Y    0.007242  -0.013316  -0.101013  -0.246803   0.161461
    5  O  1  Z   -0.013027   0.011203   0.041770   0.101970  -0.032581
    6  O  1  S   -0.122818   0.002229   0.132249   0.274746  -0.146320
    7  O  1  X   -0.014018  -0.021021   0.009307   0.055262  -0.027753
    8  O  1  Y    0.005415  -0.005869  -0.052355  -0.134147   0.086067
    9  O  1  Z   -0.005692   0.005820   0.020329   0.054835  -0.018169
   10  O  1 XX   -0.000593   0.002665   0.004278   0.003648  -0.002382
   11  O  1 YY   -0.001846  -0.001962  -0.005736  -0.014482   0.010143
   12  O  1 ZZ    0.000267  -0.000345   0.000900   0.001525  -0.002607
   13  O  1 XY   -0.002599  -0.004098   0.001635   0.009167  -0.004884
   14  O  1 XZ    0.001377   0.001453  -0.001124  -0.003537   0.000770
   15  O  1 YZ   -0.000615   0.001713   0.003529   0.007591  -0.001972
   16  O  2  S   -0.021891   0.002238   0.043256  -0.049109  -0.069472
   17  O  2  S    0.052031  -0.005794  -0.105319   0.113932   0.157260
   18  O  2  X   -0.019390   0.046773  -0.027068  -0.034406  -0.110060
   19  O  2  Y    0.001199  -0.010868   0.094237  -0.128164  -0.216139
   20  O  2  Z   -0.010434   0.011042   0.055741  -0.137373  -0.227957
   21  O  2  S    0.045039  -0.003599  -0.118406   0.167356   0.281477
   22  O  2  X   -0.009640   0.022656  -0.015835  -0.019169  -0.066496
   23  O  2  Y   -0.001397  -0.004314   0.052558  -0.072182  -0.112165
   24  O  2  Z   -0.006781   0.005397   0.031958  -0.075644  -0.123725
   25  O  2 XX    0.001017   0.000115  -0.004887   0.004071   0.004804
   26  O  2 YY    0.002084  -0.001901   0.002669  -0.004385  -0.008849
   27  O  2 ZZ    0.000122   0.000959  -0.001715  -0.005078  -0.008372
   28  O  2 XY   -0.002002   0.004117  -0.001269  -0.002489  -0.007949
   29  O  2 XZ   -0.001202   0.003579  -0.002643  -0.001556  -0.005372
   30  O  2 YZ    0.000338   0.000287   0.003595  -0.009398  -0.015216
   31  C  3  S   -0.040355   0.100514   0.023360  -0.053636   0.020981
   32  C  3  S    0.074463  -0.183247  -0.045058   0.104242  -0.047183
   33  C  3  X   -0.068626  -0.025429   0.235631  -0.018751   0.166220
   34  C  3  Y   -0.000918   0.017815  -0.053604   0.160794  -0.080254
   35  C  3  Z    0.011798  -0.028698  -0.039506  -0.047646   0.099188
   36  C  3  S    0.080125  -0.223886  -0.049382   0.131447  -0.023583
   37  C  3  X   -0.006005  -0.018254   0.083915  -0.034408   0.105255
   38  C  3  Y   -0.001471   0.014135  -0.036020   0.093791  -0.074350
   39  C  3  Z    0.002774  -0.022382  -0.009014  -0.023765   0.050416
   40  C  3 XX    0.002915  -0.007903   0.006363   0.001915   0.001475
   41  C  3 YY    0.002183  -0.003371  -0.004664   0.004708  -0.010565
   42  C  3 ZZ    0.001149  -0.001757  -0.005185  -0.000990   0.004416
   43  C  3 XY    0.000886   0.005862  -0.007624  -0.007637   0.007573
   44  C  3 XZ   -0.003486  -0.004894   0.009207   0.011427   0.006241
   45  C  3 YZ   -0.003705   0.003155   0.011093  -0.000170   0.005857
   46  C  4  S   -0.070997  -0.003978   0.089974   0.095354  -0.021851
   47  C  4  S    0.145103   0.009520  -0.189366  -0.211883   0.050329
   48  C  4  X   -0.102623  -0.138060  -0.038291   0.022523   0.024997
   49  C  4  Y    0.087018  -0.029152  -0.074286   0.073122  -0.084215
   50  C  4  Z   -0.069209   0.025309   0.060660  -0.010553   0.073880
   51  C  4  S    0.099629   0.014259  -0.182903  -0.171231   0.021303
   52  C  4  X   -0.013671  -0.022658  -0.018147   0.025294  -0.001637
   53  C  4  Y    0.024389  -0.000292  -0.036921  -0.026241  -0.002747
   54  C  4  Z   -0.018522   0.000576   0.028236   0.016652   0.018719
   55  C  4 XX    0.015579   0.006153   0.002937  -0.001620   0.002059
   56  C  4 YY   -0.008305  -0.002393  -0.001043   0.001448   0.000048
   57  C  4 ZZ   -0.001419  -0.003402   0.000892   0.007121  -0.005982
[...]
             23  O  2  Y      0.54479     0.58902
             24  O  2  Z      0.53354     0.58626
             25  O  2 XX      0.00321     0.17146
             26  O  2 YY      0.00884     0.17826
             27  O  2 ZZ      0.01145     0.18411
             28  O  2 XY      0.00293     0.00661
             29  O  2 XZ      0.00643     0.01117
             30  O  2 YZ      0.00865     0.01557
             31  C  3  S      1.99690     1.97908
             32  C  3  S      0.63117     0.35673
             33  C  3  X      0.68654     0.62921
             34  C  3  Y      0.69931     0.63321
             35  C  3  Z      0.70648     0.64279
             36  C  3  S      0.65445     0.31153
             37  C  3  X      0.28691     0.38298
             38  C  3  Y      0.39053     0.45052
             39  C  3  Z      0.39853     0.44594
             40  C  3 XX      0.01382     0.15483
             41  C  3 YY      0.02166     0.16180
             42  C  3 ZZ      0.01893     0.15804
             43  C  3 XY      0.00731     0.01117
             44  C  3 XZ      0.01176     0.01947
             45  C  3 YZ      0.00398     0.00578
             46  C  4  S      1.99693     1.97293
             47  C  4  S      0.69645     0.35674
             48  C  4  X      0.69196     0.60589
             49  C  4  Y      0.58864     0.52492
             50  C  4  Z      0.56927     0.50644
             51  C  4  S      0.39007     0.27343
             52  C  4  X      0.15079     0.32286
             53  C  4  Y      0.13260     0.28921
             54  C  4  Z      0.15106     0.29965
             55  C  4 XX      0.01599     0.16582
             56  C  4 YY      0.01565     0.16785
             57  C  4 ZZ      0.00963     0.15787
             58  C  4 XY      0.02777     0.05877
             59  C  4 XZ      0.02020     0.03885
             60  C  4 YZ      0.01869     0.03726
             61  C  5  S      1.99700     1.97273
             62  C  5  S      0.69659     0.35658
             63  C  5  X      0.67326     0.58977
             64  C  5  Y      0.51951     0.46538
             65  C  5  Z      0.66180     0.58564
             66  C  5  S      0.38120     0.27242
             67  C  5  X      0.13160     0.31814
             68  C  5  Y      0.16425     0.29700
             69  C  5  Z      0.10376     0.29009
             70  C  5 XX      0.01326     0.16182
             71  C  5 YY      0.00173     0.14266
             72  C  5 ZZ      0.02706     0.19049
             73  C  5 XY      0.01939     0.04085
             74  C  5 XZ      0.02761     0.05355
             75  C  5 YZ      0.01797     0.03478
             76  C  6  S      1.99664     1.98073
             77  C  6  S      0.63096     0.35464
             78  C  6  X      0.68071     0.62112
             79  C  6  Y      0.70529     0.63801
             80  C  6  Z      0.71118     0.64348
             81  C  6  S      0.66479     0.33006
             82  C  6  X      0.29001     0.41386
             83  C  6  Y      0.39300     0.48105
             84  C  6  Z      0.42320     0.50031
             85  C  6 XX      0.01358     0.15304
             86  C  6 YY      0.02201     0.16011
             87  C  6 ZZ      0.02199     0.15851
             88  C  6 XY      0.00669     0.01049
             89  C  6 XZ      0.01047     0.01775
             90  C  6 YZ      0.00477     0.00667
             91  C  7  S      1.99664     1.98073
             92  C  7  S      0.63059     0.35442
             93  C  7  X      0.69823     0.63522
             94  C  7  Y      0.70193     0.63296
             95  C  7  Z      0.69949     0.63626
             96  C  7  S      0.66433     0.32983
             97  C  7  X      0.36513     0.46152
             98  C  7  Y      0.40097     0.49306
             99  C  7  Z      0.35153     0.44285
            100  C  7 XX      0.01670     0.15502
            101  C  7 YY      0.02309     0.16020
            102  C  7 ZZ      0.01696     0.15610
            103  C  7 XY      0.00787     0.01206
            104  C  7 XZ      0.01230     0.01803
            105  C  7 YZ      0.00282     0.00463
            106  H  8  S      0.51862     0.48881
            107  H  8  S      0.28227     0.34165
            108  H  9  S      0.51566     0.48477
            109  H  9  S      0.25286     0.32944
            110  H 10  S      0.52007     0.48526
            111  H 10  S      0.29321     0.34694
            112  H 11  S      0.51902     0.48282
            113  H 11  S      0.28675     0.34402
            114  H 12  S      0.51983     0.48213
            115  H 12  S      0.26528     0.33637
            116  H 13  S      0.52058     0.48403
            117  H 13  S      0.27107     0.33852
            118  H 14  S      0.52153     0.48689
            119  H 14  S      0.30447     0.35211
            120  H 15  S      0.51633     0.47940
            121  H 15  S      0.26594     0.33701

          ----- MULLIKEN ATOMIC OVERLAP POPULATIONS -----
          (OFF-DIAGONAL ELEMENTS NEED TO BE MULTIPLIED BY 2)

             1           2           3           4           5

    1    8.0676510
    2   -0.0005694   8.0544874
    3   -0.0973004  -0.0783368   5.5978576
    4    0.5874851   0.0004321   0.2917728   4.4134571
    5    0.0138018   0.5963884   0.2953779  -0.0308184   4.3679727
    6   -0.0701731  -0.0000831  -0.1185592   0.3565191   0.0037927
    7   -0.0051795  -0.0755747  -0.1145252   0.0030066   0.3393611
    8    0.0016053   0.0014458   0.3629803  -0.0286569  -0.0272094
    9    0.0011770   0.0062779   0.3717483  -0.0216798  -0.0315027
   10    0.0013088  -0.0000002   0.0029463  -0.0320591  -0.0001270
   11    0.0011310   0.0000049   0.0026187  -0.0311419  -0.0001756
   12    0.0043268   0.0000006   0.0049326  -0.0333744  -0.0000709
   13    0.0001024   0.0043177   0.0047446  -0.0000884  -0.0335858
   14    0.0001581   0.0013468   0.0017830  -0.0000787  -0.0304544
   15    0.0056277   0.0013394   0.0002589   0.0009531  -0.0267552

             6           7           8           9          10

    6    5.2690953
    7   -0.0002913   5.3100811
    8   -0.0003671   0.0044328   0.5035765
    9   -0.0002578   0.0039723  -0.0170799   0.4559426
   10    0.3760573   0.0000248   0.0000839   0.0001037   0.5089863
   11    0.3777410  -0.0000038   0.0000959   0.0001119  -0.0253183
   12    0.3815831   0.0000075  -0.0000820  -0.0000397  -0.0187071
   13    0.0000039   0.3810068  -0.0001210  -0.0000872  -0.0000002
   14   -0.0000003   0.3693658   0.0004564  -0.0001305  -0.0000034
   15    0.0002203   0.3728812  -0.0002687  -0.0000331  -0.0000154

            11          12          13          14          15

   11    0.4987425
   12   -0.0180260   0.4645649
   13    0.0000000  -0.0000001   0.4711391
   14    0.0000001  -0.0000001  -0.0196697   0.5269291
   15   -0.0000014  -0.0000050  -0.0161173  -0.0237025   0.4678902

          TOTAL MULLIKEN AND LOWDIN ATOMIC POPULATIONS
       ATOM         MULL.POP.    CHARGE          LOW.POP.     CHARGE
    1 O             8.511153   -0.511153         8.284542   -0.284542
    2 O             8.511477   -0.511477         8.279123   -0.279123
    3 C             6.528299   -0.528299         6.343072   -0.343072
    4 C             5.475728    0.524272         5.778478    0.221522
    5 C             5.435995    0.564005         5.771909    0.228091
    6 C             6.575281   -0.575281         6.469834   -0.469834
    7 C             6.588565   -0.588565         6.472883   -0.472883
    8 H             0.800892    0.199108         0.830459    0.169541
    9 H             0.768523    0.231477         0.814215    0.185785
   10 H             0.813280    0.186720         0.832202    0.167798
   11 H             0.805779    0.194221         0.826839    0.173161
   12 H             0.785110    0.214890         0.818494    0.181506
   13 H             0.791645    0.208355         0.822550    0.177450
   14 H             0.826000    0.174000         0.838996    0.161004
   15 H             0.782272    0.217728         0.816405    0.183595

          -------------------------------
          BOND ORDER AND VALENCE ANALYSIS     BOND ORDER THRESHOLD=0.050
          -------------------------------

                   BOND                       BOND                       BOND
  ATOM PAIR DIST  ORDER      ATOM PAIR DIST  ORDER      ATOM PAIR DIST  ORDER
    1   4  1.192  1.885        2   5  1.191  1.899        3   4  1.522  0.921
    3   5  1.523  0.917        3   8  1.088  0.934        3   9  1.085  0.933
    4   6  1.512  0.950        5   7  1.510  0.943        6  10  1.086  0.943
    6  11  1.086  0.941        6  12  1.081  0.946        7  13  1.081  0.949
    7  14  1.087  0.944        7  15  1.083  0.929

                       TOTAL       BONDED        FREE
      ATOM            VALENCE     VALENCE     VALENCE
    1 O                 1.936       1.936      -0.000
    2 O                 1.945       1.945       0.000
    3 C                 3.645       3.645      -0.000
    4 C                 3.705       3.705      -0.000
    5 C                 3.698       3.698       0.000
    6 C                 3.750       3.750       0.000
    7 C                 3.740       3.740      -0.000
    8 H                 0.922       0.922      -0.000
    9 H                 0.918       0.918      -0.000
   10 H                 0.927       0.927      -0.000
   11 H                 0.925       0.925      -0.000
   12 H                 0.926       0.926       0.000
   13 H                 0.929       0.929       0.000
   14 H                 0.929       0.929       0.000
   15 H                 0.924       0.924       0.000

          ---------------------
          ELECTROSTATIC MOMENTS
          ---------------------

 POINT   1           X           Y           Z (BOHR)    CHARGE
                -0.167356    0.790917    0.094873        0.00 (A.U.)
         DX          DY          DZ         /D/  (DEBYE)
    -1.822272    3.960402    0.675060    4.411481
 ...... END OF PROPERTY EVALUATION ......
 STEP CPU TIME =     0.04 TOTAL CPU TIME =        160.7 (      2.7 MIN)
 TOTAL WALL CLOCK TIME=        165.7 SECONDS, CPU UTILIZATION IS    96.97%
  $VIB   
          IVIB=   0 IATOM=   0 ICOORD=   0 E=     -343.7280658434
  6.339425406E-05 8.261602818E-05 1.523002247E-05-5.036535482E-05-9.895559996E-05
  2.199821723E-05 7.959974990E-05-1.666660085E-04 4.743514517E-05-6.925040670E-05
 -1.338577829E-04-4.887999324E-05 8.448578558E-05 2.437979140E-04-9.494483310E-05
 -8.248488751E-05-1.373180212E-04-1.483759006E-04-1.184932221E-04-6.394734718E-05
  1.293334317E-04 1.276107036E-06 2.470738500E-05-1.274645687E-05-5.196114348E-05
  9.266423208E-05 3.348337797E-06 2.031907341E-06-4.739334122E-06 5.937203001E-05
  3.046596494E-05 6.363763923E-05-1.345201663E-05 6.395655517E-05 8.086667596E-05
  9.655590993E-05 6.218787063E-06 1.708996796E-06 7.778929905E-06 4.367474802E-05
 -2.967584306E-06-4.007765515E-05-2.548844468E-06 1.845280700E-05-2.257516866E-05
 -1.822272035E+00 3.960402008E+00 6.750601264E-01
 ......END OF GEOMETRY SEARCH......
 STEP CPU TIME =     0.01 TOTAL CPU TIME =        160.7 (      2.7 MIN)
 TOTAL WALL CLOCK TIME=        166.1 SECONDS, CPU UTILIZATION IS    96.75%
               1145711  WORDS OF DYNAMIC MEMORY USED
 EXECUTION OF GAMESS TERMINATED NORMALLY Thu Apr 30 06:52:32 2026
 DDI: 263640 bytes (0.3 MB / 0 MWords) used by master data server.

 ----------------------------------------
 CPU timing information for all processes
 ========================================
 0: 159.502 + 1.230 = 160.732
 ----------------------------------------
 ddikick.x: exited gracefully.
----- accounting info -----
Files used on the master node chemcompute-node-0.novalocal were:
-rw-r--r--. 1 chemcomp chemcomp     1241 Apr 30 06:49 /scratch/1118328/1594890.F05
-rw-rw-r--. 1 chemcomp chemcomp 68812800 Apr 30 06:52 /scratch/1118328/1594890.F10
Thu Apr 30 06:52:35 UTC 2026
0.086u 0.038s 2:49.68 0.0%	0+0k 8+208io 0pf+0w
Finishing Up...
Wrote IR file to: Gamess.ir
vibramans not found, parsing from GAMESS output
Wrote Raman file to: Gamess.raman
Wrote UV-Vis file to: Gamess.uvvis
Wrote Electronic Energy file to: Gamess.energy
Wrote Geometry Optimization file to: Gamess.molden
Wrote Atomic Charges file to: Gamess.charges
Wrote Dipole Moment file to: Gamess.moments
Wrote all Results to: Gamess.cclib
reading wave-function from mo.molden
Loading data from molden type file mo.molden

Converting the regular grid to a vector grid containing 2.05e+05 grid points...

Starting the calculation of the molecular orbitals...
The grid has been separated into 21 slices each having 1.00e+04 grid points.
The calculation will be carried out using only one process.

	The number of subprocesses can be changed with -p


There are 121 contracted Cartesian AOs and 37 MOs to be calculated.
	Finished 10 % (4 slices in 0.393 s)
	Finished 20 % (2 slices in 0.179 s)
	Finished 30 % (2 slices in 0.177 s)
	Finished 40 % (2 slices in 0.175 s)
	Finished 50 % (2 slices in 0.174 s)
	Finished 60 % (2 slices in 0.175 s)
	Finished 70 % (2 slices in 0.178 s)
	Finished 80 % (2 slices in 0.181 s)
	Finished 90 % (2 slices in 0.187 s)
Converting the output from a vector grid to a regular grid...

Norm of the MOs:
	2.426039	MO 1.A (Occ = 2.00, E = -20.5715 E_h)
	0.788158	MO 2.A (Occ = 2.00, E = -20.5564 E_h)
	0.900600	MO 3.A (Occ = 2.00, E = -11.3505 E_h)
	1.075211	MO 4.A (Occ = 2.00, E = -11.3346 E_h)
	1.144295	MO 5.A (Occ = 2.00, E = -11.2510 E_h)
	0.925435	MO 6.A (Occ = 2.00, E = -11.2432 E_h)
	0.929488	MO 7.A (Occ = 2.00, E = -11.2264 E_h)
	1.046586	MO 8.A (Occ = 2.00, E = -1.4190 E_h)
	0.996415	MO 9.A (Occ = 2.00, E = -1.4016 E_h)
	1.006134	MO 10.A (Occ = 2.00, E = -1.0731 E_h)
	0.998681	MO 11.A (Occ = 2.00, E = -1.0206 E_h)
	0.999633	MO 12.A (Occ = 2.00, E = -0.9756 E_h)
	1.003558	MO 13.A (Occ = 2.00, E = -0.7848 E_h)
	1.006362	MO 14.A (Occ = 2.00, E = -0.7301 E_h)
	1.000532	MO 15.A (Occ = 2.00, E = -0.6766 E_h)
	1.001929	MO 16.A (Occ = 2.00, E = -0.6655 E_h)
	1.000172	MO 17.A (Occ = 2.00, E = -0.6586 E_h)
	1.000497	MO 18.A (Occ = 2.00, E = -0.6174 E_h)
	1.000771	MO 19.A (Occ = 2.00, E = -0.6136 E_h)
	1.000214	MO 20.A (Occ = 2.00, E = -0.5945 E_h)
	1.000011	MO 21.A (Occ = 2.00, E = -0.5675 E_h)
	1.000157	MO 22.A (Occ = 2.00, E = -0.5629 E_h)
	1.000009	MO 23.A (Occ = 2.00, E = -0.5414 E_h)
	0.999515	MO 24.A (Occ = 2.00, E = -0.5092 E_h)
	1.000016	MO 25.A (Occ = 2.00, E = -0.4990 E_h)
	0.999690	MO 26.A (Occ = 2.00, E = -0.4307 E_h)
	1.000191	MO 27.A (Occ = 2.00, E = -0.4052 E_h)
	0.999680	MO 28.A (Occ = 0.00, E = +0.1503 E_h)
	1.000217	MO 29.A (Occ = 0.00, E = +0.1625 E_h)
	1.000634	MO 30.A (Occ = 0.00, E = +0.2183 E_h)
	0.999066	MO 31.A (Occ = 0.00, E = +0.2583 E_h)
	0.999700	MO 32.A (Occ = 0.00, E = +0.2848 E_h)
	0.999666	MO 33.A (Occ = 0.00, E = +0.2909 E_h)
	0.999988	MO 34.A (Occ = 0.00, E = +0.3067 E_h)
	1.001023	MO 35.A (Occ = 0.00, E = +0.3094 E_h)
	1.000488	MO 36.A (Occ = 0.00, E = +0.3270 E_h)
	0.999972	MO 37.A (Occ = 0.00, E = +0.3316 E_h)
[done] wrote 38 entries to mo_cutoffs.json
total density…
JmolData using command options ["-n", "-s", "rho.spt"]
{noDisplay=true, noConsole=true, exit=true, headlessMaxTimeMs=60000, JmolData=true, isDataOnly=true}
Jmol version 16.3.31  2025-07-21 14:08
Operating headless display=null nographicsallowed=true
Executing script from file: rho.spt
jmolapp evalfilearsgs  rho.spt
Executing script: ;exitJmol;
FileManager opening file /data/slurm/159/1594890/rho.spt

FileManager.getAtomSetCollectionFromFile(/data/slurm/159/1594890/Gamess.stdout)
FileManager opening file /data/slurm/159/1594890/Gamess.stdout
The Resolver thinks GamessUS
          *         GAMESS VERSION = 30 JUN 2019 (R1)          *

          1 ELECTRON INTEGRALS
 ...... END OF ONE-ELECTRON INTEGRALS ......
Energy for model 2 = -343.5824183880
121 molecular orbitals read in model 2
Energy for model 2 = -343.5824183880
Molecular dipole for model 2 = {-0.310717, 4.360714, 1.030295}
Energy for model 3 = -343.6209868919
Energy for model 4 = -343.6578916023
Energy for model 5 = -343.6789777253
Energy for model 6 = -343.6932138723
Energy for model 7 = -343.7051558166
Energy for model 8 = -343.7153492698
Energy for model 9 = -343.7215019348
Energy for model 10 = -343.7227997790
Energy for model 11 = -343.7231507809
Energy for model 12 = -343.7234170853
Energy for model 13 = -343.7235147784
Energy for model 14 = -343.7236356258
Energy for model 15 = -343.7237704426
Energy for model 16 = -343.7239743405
Energy for model 17 = -343.7242731151
Energy for model 18 = -343.7248651530
Energy for model 19 = -343.7260117583
Energy for model 20 = -343.7272357319
Energy for model 21 = -343.7276889469
Energy for model 22 = -343.7278834926
Energy for model 23 = -343.7279705439
Energy for model 24 = -343.7280196194
Energy for model 25 = -343.7280471530
Energy for model 26 = -343.7280594640
Energy for model 27 = -343.7280642533
Energy for model 28 = -343.7280658434
37 molecular orbitals read in model 29
Energy for model 29 = -343.7280658434
Molecular dipole for model 29 = {-1.8222721, 3.960402, 0.67506}
Time for openFile(/data/slurm/159/1594890/Gamess.stdout): 367 ms
reading 435 atoms
ModelSet: haveSymmetry:false haveUnitcells:false haveFractionalCoord:false
29 models in this collection. Use getProperty "modelInfo" or getProperty "auxiliaryInfo" to inspect them.
Default Van der Waals type for model set to Babel
435 atoms created
ModelSet: autobonding; use  autobond=false  to not generate bonds automatically
Time for creating model: 22 ms
29 models
121 molecular orbitals in model 1.2
37 molecular orbitals in model 1.29

MO 27
Molecular orbital #1/121 6-31G(d) RHF OPTIMIZE
15 atoms will be used in the surface calculation
Maximum number of voxels for index=0 exceeded (114) -- set to 80
Maximum number of voxels for index=1 exceeded (84) -- set to 80
Maximum number of voxels for index=2 exceeded (84) -- set to 80
generating isosurface data for MO using cutoff 2.1272089E-4
QuantumCalculation:
 origin = [-5.8079314, -3.4799166, -4.24162]
 range (Ang) = [11.53245, 8.417866, 8.407087]
 steps (Bohr)= [0.2724132, 0.19884223, 0.19858761]
 origin(Bohr)= [-10.975342, -6.5760546, -8.015458]
 steps = [0.2724132, 0.19884223, 0.19858761]
 counts= 80 80 80
calculation type: 6-31G(d) RHF OPTIMIZE OK.
boundbox corners {-4.0495896 -1.6871488 -2.4493344} {3.810733 3.039944 2.2635267}
rho created  with cutoff=2.1272089E-4; isosurface count: 1
isosurface full data range -1.0 to 1.0 with color scheme spanning -1.0 to 1.0
#created by Jmol Version 16.3.31  2025-07-21 14:08 on Thu Apr 30 06:52:41 UTC 2026
MO
calculation type: 6-31G(d) RHF OPTIMIZE

isosurface resolution for axis 1 set to 6.9369473 points/Angstrom; 80 voxels
isosurface resolution for axis 2 set to 9.503596 points/Angstrom; 80 voxels
isosurface resolution for axis 3 set to 9.51578 points/Angstrom; 80 voxels
512000 voxels total

1 id:rho; model:1.2; vertices:11102; polygons:22200; visible:true; dataRange:[-1.0, 1.0, -1.0, 1.0]; title:isosurface rho cutoff 0.014584953896488687 mo density;

<jvxlSurfaceInfo 
  isModelConnected="true" 
  cutoff="2.1272089E-4" 
  isCutoffAbsolute="true" 
  pointsPerAngstrom="6.936948" 
  nBytesData="40526" 
  isXLowToHigh="false" 
  nSurfaceInts="3654" 
  nBytesUncompressedEdgeData="11101" 
  nBytesUncompressedColorData="25600" 
  precisionColor="true" 
  bicolorMap="true" 
  colorNegative="[xff0000]" 
  colorPositive="[x0000ff]" 
  color="[xffa500]" 
  translucency="0.0" 
  rendering="fill noMesh noDots notFrontOnly frontlit" 
  slabbable="true" 
  xyzMin="{-4.0495896 -1.6871488 -2.4493344}" 
  xyzMax="{3.810733 3.039944 2.2635267}" 
  approximateCompressionRatio="not calculated" 
  jmolVersion="Jmol 16.3.31  2025-07-21 14:08">
</jvxlSurfaceInfo>


chemcompute.org
{'UTCtimestamp': '2026-04-30T06:52:52.034987', 'cluster': 'jetstream2', 'clusterJobNumber': '1118328', 'status': 'COMPLETE', 'nodeList': 'chemcompute-node-0'}
1118328
