chemcompute.org
{'UTCtimestamp': '2026-04-30T07:35:59.102210', 'cluster': 'jetstream2', 'clusterJobNumber': '1118338', 'status': 'RUNNING', 'nodeList': 'chemcompute-node-0'}
----- GAMESS execution script 'rungms' -----
This job is running on host chemcompute-node-0.novalocal
under operating system Linux at Thu Apr 30 07:35:59 UTC 2026
SLURM has assigned the following compute nodes to this run:
Available scratch disk space (Kbyte units) at beginning of the job is
Filesystem     1K-blocks     Used Available Use% Mounted on
/dev/sda4       61775852 12618812  49157040  21% /
GAMESS temporary binary files will be written to /scratch/1118338
GAMESS supplementary output files will be written to /data/slurm/159/1594900
Copying input file 1594900.inp to your run's scratch directory...
The generated host list is
chemcompute-node-0.novalocal

 Distributed Data Interface kickoff program.
 Initiating 1 compute processes on 1 nodes to run the following command:
 /data/gamess-2019R1-avx2-ddi/gamess.00.x 1594900 

          ******************************************************
          *         GAMESS VERSION = 30 JUN 2019 (R1)          *
          *             FROM IOWA STATE UNIVERSITY             *
          * M.W.SCHMIDT, K.K.BALDRIDGE, J.A.BOATZ, S.T.ELBERT, *
          *   M.S.GORDON, J.H.JENSEN, S.KOSEKI, N.MATSUNAGA,   *
          *          K.A.NGUYEN, S.J.SU, T.L.WINDUS,           *
          *       TOGETHER WITH M.DUPUIS, J.A.MONTGOMERY       *
          *         J.COMPUT.CHEM.  14, 1347-1363(1993)        *
          **************** 64 BIT INTEL VERSION ****************

  SINCE 1993, STUDENTS AND POSTDOCS WORKING AT IOWA STATE UNIVERSITY
  AND ALSO IN THEIR VARIOUS JOBS AFTER LEAVING ISU HAVE MADE IMPORTANT
  CONTRIBUTIONS TO THE CODE:
     IVANA ADAMOVIC, CHRISTINE AIKENS, YURI ALEXEEV, POOJA ARORA,
     ANDREY ASADCHEV, ROB BELL, PRADIPTA BANDYOPADHYAY, JONATHAN BENTZ,
     COLLEEN BERTONI, BRETT BODE, KURT BRORSEN, CALEB CARLIN, GALINA CHABAN,
     WEI CHEN, CHEOL HO CHOI, PAUL DAY, ALBERT DEFUSCO, NUWAN DESILVA,
     TIM DUDLEY, DMITRI FEDOROV, ALEX FINDLATER, GRAHAM FLETCHER, 
     MARK FREITAG, KURT GLAESEMANN, ANASTASIA GUNINA,
     DAN KEMP, GRANT MERRILL, NORIYUKI MINEZAWA, JONATHAN MULLIN,
     TAKESHI NAGATA, SEAN NEDD, HEATHER NETZLOFF, BOSILJKA NJEGIC, RYAN OLSON,
     MIKE PAK, BUU PHAM,
     SPENCER PRUITT, LUKE ROSKOP, JIM SHOEMAKER, LYUDMILA SLIPCHENKO,
     TONY SMITH, SAROM SOK LEANG, JIE SONG, TETSUYA TAKETSUGU, SIMON WEBB,
     PENG XU, SOOHAENG YOO, FEDERICO ZAHARIEV

  ADDITIONAL CODE HAS BEEN PROVIDED BY COLLABORATORS IN OTHER GROUPS:
     IOWA STATE UNIVERSITY:
          JOE IVANIC, AARON WEST, LAIMUTIS BYTAUTAS, KLAUS RUEDENBERG
     UNIVERSITY OF TOKYO: KIMIHIKO HIRAO, TAKAHITO NAKAJIMA,
          TAKAO TSUNEDA, MUNEAKI KAMIYA, SUSUMU YANAGISAWA,
          KIYOSHI YAGI, MAHITO CHIBA, SEIKEN TOKURA, NAOAKI KAWAKAMI
     UNIVERSITY OF AARHUS: FRANK JENSEN
     UNIVERSITY OF IOWA: VISVALDAS KAIRYS, HUI LI
     NATIONAL INST. OF STANDARDS AND TECHNOLOGY: WALT STEVENS, DAVID GARMER
     UNIVERSITY OF PISA: BENEDETTA MENNUCCI, JACOPO TOMASI
     UNIVERSITY OF MEMPHIS: HENRY KURTZ, PRAKASHAN KORAMBATH
     UNIVERSITY OF ALBERTA: TOBY ZENG, MARIUSZ KLOBUKOWSKI
     UNIVERSITY OF NEW ENGLAND: MARK SPACKMAN
     MIE UNIVERSITY: HIROAKI UMEDA
     NAT. INST. OF ADVANCED INDUSTRIAL SCIENCE AND TECHNOLOGY: KAZUO KITAURA
     MICHIGAN STATE UNIVERSITY:
          KAROL KOWALSKI, MARTA WLOCH, JEFFREY GOUR, JESSE LUTZ,
          WEI LI, JUN SHEN, J. EMILIANO DEUSTUA, PIOTR PIECUCH
     UNIVERSITY OF MINNESOTA:
          YINAN SHU
     UNIVERSITY OF SILESIA: MONIKA MUSIAL, STANISLAW KUCHARSKI
     FACULTES UNIVERSITAIRES NOTRE-DAME DE LA PAIX:
          OLIVIER QUINET, BENOIT CHAMPAGNE
     UNIVERSITY OF CALIFORNIA - SANTA BARBARA: BERNARD KIRTMAN
     INSTITUTE FOR MOLECULAR SCIENCE:
          KAZUYA ISHIMURA, MICHIO KATOUDA, AND SHIGERU NAGASE
     UNIVERSITY OF NOTRE DAME: ANNA POMOGAEVA, DAN CHIPMAN
     KYUSHU UNIVERSITY:
          HARUYUKI NAKANO,
          FENG LONG GU, JACEK KORCHOWIEC, MARCIN MAKOWSKI, AND YURIKO AOKI,
          HIROTOSHI MORI AND EISAKU MIYOSHI
     PENNSYLVANIA STATE UNIVERSITY:
          TZVETELIN IORDANOV, CHET SWALINA, JONATHAN SKONE,
          SHARON HAMMES-SCHIFFER
     WASEDA UNIVERSITY:
          MASATO KOBAYASHI, TOMOKO AKAMA, TSUGUKI TOUMA,
          TAKESHI YOSHIKAWA, YASUHIRO IKABATA, JUNJI SEINO,
          YUYA NAKAJIMA, HIROMI NAKAI
     NANJING UNIVERSITY: SHUHUA LI
     UNIVERSITY OF NEBRASKA:
          PEIFENG SU, DEJUN SI, NANDUN THELLAMUREGE, YALI WANG, HUI LI
     UNIVERSITY OF ZURICH: ROBERTO PEVERATI, KIM BALDRIDGE
     N. COPERNICUS UNIVERSITY AND JACKSON STATE UNIVERSITY:
          MARIA BARYSZ
     UNIVERSITY OF COPENHAGEN: Jimmy Kromann, CASPER STEINMANN
     TOKYO INSTITUTE OF TECHNOLOGY: HIROYA NAKATA
     NAGOYA UNIVERSITY: YOSHIO NISHIMOTO, STEPHAN IRLE
     MOSCOW STATE UNIVERSITY: VLADIMIR MIRONOV
     A.N.NESMEYANOV INSTITUTE OF ORGANOELEMENT COMPOUNDS OF RUSSIAN ACADEMY OF SCIENCES:
          IGOR S. GERASIMOV

 EXECUTION OF GAMESS BEGUN Thu Apr 30 07:35:59 2026

            ECHO OF THE FIRST FEW INPUT CARDS -
 INPUT CARD>!                                                                               
 INPUT CARD>!   GAMESS Calculation input file                                               
 INPUT CARD>!                                                                               
 INPUT CARD>!                                                                               
 INPUT CARD> $CONTRL SCFTYP=RHF MAXIT=200 RUNTYP=OPTIMIZE                                   
 INPUT CARD>         COORD=UNIQUE MULT=1                                                    
 INPUT CARD>         ICHARG=0                                                               
 INPUT CARD>         DFTTYP=B3LYP                                                           
 INPUT CARD>         MOLPLT=.FALSE. PLTORB=.FALSE.  $END                                    
 INPUT CARD> $SYSTEM TIMLIM=2879 MWORDS=250  $END                                           
 INPUT CARD>                                                                                
 INPUT CARD> $STATPT OPTTOL=0.0005 NSTEP=999 $END                                           
 INPUT CARD> $STATPT IHREP=0  $END                                                          
 INPUT CARD>                                                                                
 INPUT CARD> $DFT    METHOD=GRID  NLEB=590  $END                                            
 INPUT CARD>                                                                                
 INPUT CARD> $BASIS  GBASIS=N31 NGAUSS=6                                                    
 INPUT CARD>         NDFUNC=1   NPFUNC=0  $END                                              
 INPUT CARD>                                                                                
 INPUT CARD> $PCM  SOLVNT=H2O  $END                                                         
 INPUT CARD>                                                                                
 INPUT CARD> $SCF    DIRSCF=.T. $END                                                        
 INPUT CARD> $GUESS  GUESS=HUCKEL  $END                                                     
 INPUT CARD>                                                                                
 INPUT CARD> $DATA                                                                          
 INPUT CARD>                                                                                
 INPUT CARD>  C1                                                                            
 INPUT CARD>O     8.0    -1.41168    -1.26231    -0.09469                                   
 INPUT CARD>O     8.0     1.41402    -1.26225     0.10822                                   
 INPUT CARD>C     6.0    -0.00004     0.71242     0.04222                                   
 INPUT CARD>C     6.0    -1.32675    -0.05642    -0.03283                                   
 INPUT CARD>C     6.0     1.32776    -0.05683     0.04427                                   
 INPUT CARD>C     6.0    -2.56476     0.83308    -0.03056                                   
 INPUT CARD>C     6.0     2.56527     0.83171    -0.01923                                   
 INPUT CARD>H     1.0    -0.02295     1.34509     0.94459                                   
 INPUT CARD>H     1.0     0.02083     1.44313    -0.78135                                   
 INPUT CARD>H     1.0    -2.60176     1.44864     0.87808                                   
 INPUT CARD>H     1.0    -2.54919     1.52451    -0.88259                                   
 INPUT CARD>H     1.0    -3.45907     0.20868    -0.08408                                   
 INPUT CARD>H     1.0     3.46123     0.20882     0.02296                                   
 INPUT CARD>H     1.0     2.57439     1.42030    -0.94604                                   
 INPUT CARD>H     1.0     2.57492     1.54813     0.81273                                   
 INPUT CARD> $END                                                                           
 INPUT CARD>                                                                                
 INPUT CARD>                                                                                
 INPUT CARD>! Customizations after this line are persisted when using Do More Calculations  
  250000000 WORDS OF MEMORY AVAILABLE

     BASIS OPTIONS
     -------------
     GBASIS=N31          IGAUSS=       6      POLAR=POPN31  
     NDFUNC=       1     NFFUNC=       0     DIFFSP=       F
     NPFUNC=       0      DIFFS=       F     BASNAM=        


     RUN TITLE
     ---------
                                                                                 

 THE POINT GROUP OF THE MOLECULE IS C1      
 THE ORDER OF THE PRINCIPAL AXIS IS     0

 ATOM      ATOMIC                      COORDINATES (BOHR)
           CHARGE         X                   Y                   Z
 O           8.0    -2.6676883823       -2.3854200116       -0.1789381538
 O           8.0     2.6721103412       -2.3853066280        0.2045061464
 C           6.0    -0.0000755890        1.3462785882        0.0797842312
 C           6.0    -2.5071939542       -0.1066183402       -0.0620397042
 C           6.0     2.5091025775       -0.1073931279        0.0836581695
 C           6.0    -4.8466936243        1.5742929259       -0.0577500262
 C           6.0     4.8476573845        1.5717040012       -0.0363394307
 H           1.0    -0.0433692114        2.5418515288        1.7850162707
 H           1.0     0.0393629923        2.7271202647       -1.4765374005
 H           1.0    -4.9166134858        2.7375326549        1.6593305953
 H           1.0    -4.8172705906        2.8809061655       -1.6678532595
 H           1.0    -6.5366944723        0.3943480191       -0.1588881610
 H           1.0     6.5407762805        0.3946125808        0.0433881087
 H           1.0     4.8648916855        2.6839778204       -1.7877563734
 H           1.0     4.8658932403        2.9255414934        1.5358370020

          INTERNUCLEAR DISTANCES (ANGS.)
          ------------------------------

                1 O          2 O          3 C          4 C          5 C     

   1 O       0.0000000    2.8329760 *  2.4312611 *  1.2104588 *  2.9961681 *
   2 O       2.8329760 *  0.0000000    2.4296591 *  2.9976226 *  1.2101933 *
   3 C       2.4312611 *  2.4296591 *  0.0000000    1.5352221 *  1.5345366 *
   4 C       1.2104588 *  2.9976226 *  1.5352221 *  0.0000000    2.6556295 *
   5 C       2.9961681 *  1.2101933 *  1.5345366 *  2.6556295 *  0.0000000  
   6 C       2.3925646 *  4.4989285    2.5685880 *  1.5244291 *  3.9936514  
   7 C       4.4951914    2.3929665 *  2.5688172 *  3.9920896    1.5247841 *
   8 H       3.1316463    3.0923485    1.1023011 *  2.1492963 *  2.1448481 *
   9 H       3.1373544    3.1703934    1.1011994 *  2.1505591 *  2.1539718 *
  10 H       3.1163796    4.9059248    2.8301288 *  2.1726972 *  4.2898492  
  11 H       3.1114436    4.9451764    2.8307118 *  2.1715873 *  4.2884084  
  12 H       2.5210573 *  5.0938807    3.4977985    2.1493471 *  4.7959056  
  13 H       5.0914946    2.5223769 *  3.4977670    4.7956457    2.1500508 *
  14 H       4.8795438    3.1070882    2.8470058 *  4.2700758    2.1717996 *
  15 H       4.9613470    3.1212592    2.8146964 *  4.3026249    2.1729785 *

                6 C          7 C          8 H          9 H         10 H     

   1 O       2.3925646 *  4.4951914    3.1316463    3.1373544    3.1163796  
   2 O       4.4989285    2.3929665 *  3.0923485    3.1703934    4.9059248  
   3 C       2.5685880 *  2.5688172 *  1.1023011 *  1.1011994 *  2.8301288 *
   4 C       1.5244291 *  3.9920896    2.1492963 *  2.1505591 *  2.1726972 *
   5 C       3.9936514    1.5247841 *  2.1448481 *  2.1539718 *  4.2898492  
   6 C       0.0000000    5.1300427    2.7701751 *  2.7606380 *  1.0981392 *
   7 C       5.1300427    0.0000000    2.8091619 *  2.7255892 *  5.2805271  
   8 H       2.7701751 *  2.8091619 *  0.0000000    1.7292766 *  2.5817450 *
   9 H       2.7606380 *  2.7255892 *  1.7292766 *  0.0000000    3.1035007  
  10 H       1.0981392 *  5.2805271    2.5817450 *  3.1035007    0.0000000  
  11 H       1.0973937 *  5.2328829    3.1229260    2.5733004 *  1.7630878 *
  12 H       1.0920303 *  6.0568180    3.7625138    3.7576264    1.7883605 *
  13 H       6.0584751    1.0920239 *  3.7788916    3.7425643    6.2472579  
  14 H       5.2529795    1.0979518 *  3.2134582    2.5589671 *  5.4882370  
  15 H       5.2572564    1.0979564 *  2.6091265 *  3.0125557    5.1780483  

               11 H         12 H         13 H         14 H         15 H     

   1 O       3.1114436    2.5210573 *  5.0914946    4.8795438    4.9613470  
   2 O       4.9451764    5.0938807    2.5223769 *  3.1070882    3.1212592  
   3 C       2.8307118 *  3.4977985    3.4977670    2.8470058 *  2.8146964 *
   4 C       2.1715873 *  2.1493471 *  4.7956457    4.2700758    4.3026249  
   5 C       4.2884084    4.7959056    2.1500508 *  2.1717996 *  2.1729785 *
   6 C       1.0973937 *  1.0920303 *  6.0584751    5.2529795    5.2572564  
   7 C       5.2328829    6.0568180    1.0920239 *  1.0979518 *  1.0979564 *
   8 H       3.1229260    3.7625138    3.7788916    3.2134582    2.6091265 *
   9 H       2.5733004 *  3.7576264    3.7425643    2.5589671 *  3.0125557  
  10 H       1.7630878 *  1.7883605 *  6.2472579    5.4882370    5.1780483  
  11 H       0.0000000    1.7879901 *  6.2190200    5.1250325    5.3973300  
  12 H       1.7879901 *  0.0000000    6.9211278    6.2139873    6.2455928  
  13 H       6.2190200    6.9211278    0.0000000    1.7869331 *  1.7897020 *
  14 H       5.1250325    6.2139873    1.7869331 *  0.0000000    1.7634094 *
  15 H       5.3973300    6.2455928    1.7897020 *  1.7634094 *  0.0000000  

  * ... LESS THAN  3.000


     ATOMIC BASIS SET
     ----------------
 THE CONTRACTED PRIMITIVE FUNCTIONS HAVE BEEN UNNORMALIZED
 THE CONTRACTED BASIS FUNCTIONS ARE NOW NORMALIZED TO UNITY

  SHELL TYPE  PRIMITIVE        EXPONENT          CONTRACTION COEFFICIENT(S)

 O         

      1   S       1          5484.6716600    0.001831074430
      1   S       2           825.2349460    0.013950172200
      1   S       3           188.0469580    0.068445078098
      1   S       4            52.9645000    0.232714335992
      1   S       5            16.8975704    0.470192897984
      1   S       6             5.7996353    0.358520852987

      2   L       7            15.5396162   -0.110777549525    0.070874268231
      2   L       8             3.5999336   -0.148026262701    0.339752839147
      2   L       9             1.0137618    1.130767015354    0.727158577316

      3   L      10             0.2700058    1.000000000000    1.000000000000

      4   D      11             0.8000000    1.000000000000

 O         

      5   S      12          5484.6716600    0.001831074430
      5   S      13           825.2349460    0.013950172200
      5   S      14           188.0469580    0.068445078098
      5   S      15            52.9645000    0.232714335992
      5   S      16            16.8975704    0.470192897984
      5   S      17             5.7996353    0.358520852987

      6   L      18            15.5396162   -0.110777549525    0.070874268231
      6   L      19             3.5999336   -0.148026262701    0.339752839147
      6   L      20             1.0137618    1.130767015354    0.727158577316

      7   L      21             0.2700058    1.000000000000    1.000000000000

      8   D      22             0.8000000    1.000000000000

 C         

      9   S      23          3047.5248800    0.001834737132
      9   S      24           457.3695180    0.014037322813
      9   S      25           103.9486850    0.068842622264
      9   S      26            29.2101553    0.232184443216
      9   S      27             9.2866630    0.467941348435
      9   S      28             3.1639270    0.362311985337

     10   L      29             7.8682723   -0.119332419775    0.068999066591
     10   L      30             1.8812885   -0.160854151696    0.316423960957
     10   L      31             0.5442493    1.143456437840    0.744308290898

     11   L      32             0.1687145    1.000000000000    1.000000000000

     12   D      33             0.8000000    1.000000000000

 C         

     13   S      34          3047.5248800    0.001834737132
     13   S      35           457.3695180    0.014037322813
     13   S      36           103.9486850    0.068842622264
     13   S      37            29.2101553    0.232184443216
     13   S      38             9.2866630    0.467941348435
     13   S      39             3.1639270    0.362311985337

     14   L      40             7.8682723   -0.119332419775    0.068999066591
     14   L      41             1.8812885   -0.160854151696    0.316423960957
     14   L      42             0.5442493    1.143456437840    0.744308290898

     15   L      43             0.1687145    1.000000000000    1.000000000000

     16   D      44             0.8000000    1.000000000000

 C         

     17   S      45          3047.5248800    0.001834737132
     17   S      46           457.3695180    0.014037322813
     17   S      47           103.9486850    0.068842622264
     17   S      48            29.2101553    0.232184443216
     17   S      49             9.2866630    0.467941348435
     17   S      50             3.1639270    0.362311985337

     18   L      51             7.8682723   -0.119332419775    0.068999066591
     18   L      52             1.8812885   -0.160854151696    0.316423960957
     18   L      53             0.5442493    1.143456437840    0.744308290898

     19   L      54             0.1687145    1.000000000000    1.000000000000

     20   D      55             0.8000000    1.000000000000

 C         

     21   S      56          3047.5248800    0.001834737132
     21   S      57           457.3695180    0.014037322813
     21   S      58           103.9486850    0.068842622264
     21   S      59            29.2101553    0.232184443216
     21   S      60             9.2866630    0.467941348435
     21   S      61             3.1639270    0.362311985337

     22   L      62             7.8682723   -0.119332419775    0.068999066591
     22   L      63             1.8812885   -0.160854151696    0.316423960957
     22   L      64             0.5442493    1.143456437840    0.744308290898

     23   L      65             0.1687145    1.000000000000    1.000000000000

     24   D      66             0.8000000    1.000000000000

 C         

     25   S      67          3047.5248800    0.001834737132
     25   S      68           457.3695180    0.014037322813
     25   S      69           103.9486850    0.068842622264
     25   S      70            29.2101553    0.232184443216
     25   S      71             9.2866630    0.467941348435
     25   S      72             3.1639270    0.362311985337

     26   L      73             7.8682723   -0.119332419775    0.068999066591
     26   L      74             1.8812885   -0.160854151696    0.316423960957
     26   L      75             0.5442493    1.143456437840    0.744308290898

     27   L      76             0.1687145    1.000000000000    1.000000000000

     28   D      77             0.8000000    1.000000000000

 H         

     29   S      78            18.7311370    0.033494604338
     29   S      79             2.8253944    0.234726953484
     29   S      80             0.6401217    0.813757326146

     30   S      81             0.1612778    1.000000000000

 H         

     31   S      82            18.7311370    0.033494604338
     31   S      83             2.8253944    0.234726953484
     31   S      84             0.6401217    0.813757326146

     32   S      85             0.1612778    1.000000000000

 H         

     33   S      86            18.7311370    0.033494604338
     33   S      87             2.8253944    0.234726953484
     33   S      88             0.6401217    0.813757326146

     34   S      89             0.1612778    1.000000000000

 H         

     35   S      90            18.7311370    0.033494604338
     35   S      91             2.8253944    0.234726953484
     35   S      92             0.6401217    0.813757326146

     36   S      93             0.1612778    1.000000000000

 H         

     37   S      94            18.7311370    0.033494604338
     37   S      95             2.8253944    0.234726953484
     37   S      96             0.6401217    0.813757326146

     38   S      97             0.1612778    1.000000000000

 H         

     39   S      98            18.7311370    0.033494604338
     39   S      99             2.8253944    0.234726953484
     39   S     100             0.6401217    0.813757326146

     40   S     101             0.1612778    1.000000000000

 H         

     41   S     102            18.7311370    0.033494604338
     41   S     103             2.8253944    0.234726953484
     41   S     104             0.6401217    0.813757326146

     42   S     105             0.1612778    1.000000000000

 H         

     43   S     106            18.7311370    0.033494604338
     43   S     107             2.8253944    0.234726953484
     43   S     108             0.6401217    0.813757326146

     44   S     109             0.1612778    1.000000000000

 TOTAL NUMBER OF BASIS SET SHELLS             =   44
 NUMBER OF CARTESIAN GAUSSIAN BASIS FUNCTIONS =  121
 NUMBER OF ELECTRONS                          =   54
 CHARGE OF MOLECULE                           =    0
 SPIN MULTIPLICITY                            =    1
 NUMBER OF OCCUPIED ORBITALS (ALPHA)          =   27
 NUMBER OF OCCUPIED ORBITALS (BETA )          =   27
 TOTAL NUMBER OF ATOMS                        =   15
 THE NUCLEAR REPULSION ENERGY IS      290.1566921714

 SELECTED MURRAY-HANDY-LAMING RADIAL GRID

 LEGACY BECKE'S FUZZY CELL METHOD

 SELECTED ORIGINAL BECKE'S PARTITION FUNCTION

     LEBEDEV GRID-BASED DFT OPTIONS
     ------------------------------
     DFTTYP=B3LYP   
     NRAD  =      96     NLEB  =     590
     NRAD0 =      24     NLEB0 =     110
     SWOFF =    5.00E-03 (PURE SCF -> DFT)
     SWITCH=    3.00E-04 (COARSE -> TIGHT GRID)
     THRESH=    0.00E+00 GTHRE=    1.00E+00

 GRIMME'S EMPIRICAL DISPERSION CORRECTION= F

     $CONTRL OPTIONS
     ---------------
 SCFTYP=RHF          RUNTYP=OPTIMIZE     EXETYP=RUN     
 MPLEVL=       0     CITYP =NONE         CCTYP =NONE         VBTYP =NONE    
 DFTTYP=B3LYP        TDDFT =NONE    
 MULT  =       1     ICHARG=       0     NZVAR =       0     COORD =UNIQUE  
 PP    =NONE         RELWFN=NONE         LOCAL =NONE         NUMGRD=       F
 ISPHER=      -1     NOSYM =       0     MAXIT =     200     UNITS =ANGS    
 PLTORB=       F     MOLPLT=       F     AIMPAC=       F     FRIEND=        
 NPRINT=       7     IREST =       0     GEOM  =INPUT   
 NORMF =       0     NORMP =       0     ITOL  =      20     ICUT  =       9
 INTTYP=BEST         GRDTYP=BEST         QMTTOL= 1.0E-06

     $SYSTEM OPTIONS
     ---------------
  REPLICATED MEMORY=   250000000 WORDS (ON EVERY NODE).
 DISTRIBUTED MEMDDI=           0 MILLION WORDS IN AGGREGATE,
 MEMDDI DISTRIBUTED OVER   1 PROCESSORS IS           0 WORDS/PROCESSOR.
 TOTAL MEMORY REQUESTED ON EACH PROCESSOR=   250000000 WORDS.
 TIMLIM=        2879.00 MINUTES, OR       2.0 DAYS.
 PARALL= F  BALTYP=  DLB     KDIAG=    0  COREFL= F
 MXSEQ2=     300 MXSEQ3=     150  mem10=         0

 ** LOOKING UP INTERNALLY STORED DATA FOR SOLVENT=H2O      **
 OPTICAL AND PHYSICAL CONSTANTS:
 EPS= 78.390; EPSINF=  1.776; RSOLV=  1.385 A; VMOL=  18.070 ML/MOL;
 TCE= .25700E-03 1/K; STEN= 71.810 DYN/CM;  DSTEN=  0.6500; CMF=  1.2770


     -----------------------------------
     INPUT FOR PCM SOLVATION CALCULATION 
     -----------------------------------
     IEF   =     -10
     ICOMP =       0     IFIELD=       0     ICAV  =       0
     IDISP =       0     IREP  =       0     IDP   =       0

     SOLVNT=H2O          EPS   = 78.3900     EPSINF=  1.7760
     VMOL  = 18.0700     TCE   =  0.00025700 STEN  = 71.8100
     DSTEN =  0.6500     CMF   =  1.2770     RSOLV =  1.3850

     NESFP =       0
     OMEGA = 40.0000     RET   =100.0000     FRO   =  0.7000

     TABS  =298.0000     IPRINT=       0

     --------------------------------
     INPUT FOR ITERATIVE C-PCM METHOD 
     --------------------------------
     IPCMIT  =         1     MXDIIS  =        50
     MXITR1  =        50     MXITR2  =        50
     THRES   = 0.100E-09     IMUL    =         3
     RCUT(1) =   15.0000     RCUT(2) =   30.0000

     IDIRCT  =         1
     IMGABI  =         0     RABI    =    4.0000
     IMGASC  =         0     RASC    =   20.0000
     THRSLS  = 0.500E-03     DENSLS  =    0.0100
     IEFPOL  =         1     REFPOL  =    0.0000

     INPUT FOR ISOTROPIC DIELECTRICS
     -------------------------------
     EPS=    78.39

     INPUT FOR CAVITY DEFINITION 
     ---------------------------
   ATOM               COORDINATES                RADIUS       EPS
      1     -1.4117     -1.2623     -0.0947      1.5000     78.3900
      2      1.4140     -1.2623      0.1082      1.5000     78.3900
      3     -0.0000      0.7124      0.0422      1.7000     78.3900
      4     -1.3268     -0.0564     -0.0328      1.7000     78.3900
      5      1.3278     -0.0568      0.0443      1.7000     78.3900
      6     -2.5648      0.8331     -0.0306      1.7000     78.3900
      7      2.5653      0.8317     -0.0192      1.7000     78.3900
      8     -0.0230      1.3451      0.9446      1.2000     78.3900
      9      0.0208      1.4431     -0.7814      1.2000     78.3900
     10     -2.6018      1.4486      0.8781      1.2000     78.3900
     11     -2.5492      1.5245     -0.8826      1.2000     78.3900
     12     -3.4591      0.2087     -0.0841      1.2000     78.3900
     13      3.4612      0.2088      0.0230      1.2000     78.3900
     14      2.5744      1.4203     -0.9460      1.2000     78.3900
     15      2.5749      1.5481      0.8127      1.2000     78.3900

     ----------------------------
     INPUT FOR TESSERA DEFINITION
     ----------------------------
     NTSALL  =        60     MTHALL  =         4
     MTHAUT  =         0     AUTFRE  =    2.0000
     NTSFRZ  =        60     KEEPSM  =         0
     AREAKP  =   10.0000     BONDRY  =    1.0000
     AREATL  =    0.0100

     SPHERE     INITS       METHOD
          1        60       FIXPVA
          2        60       FIXPVA
          3        60       FIXPVA
          4        60       FIXPVA
          5        60       FIXPVA
          6        60       FIXPVA
          7        60       FIXPVA
          8        60       FIXPVA
          9        60       FIXPVA
         10        60       FIXPVA
         11        60       FIXPVA
         12        60       FIXPVA
         13        60       FIXPVA
         14        60       FIXPVA
         15        60       FIXPVA

     ------------------------------
      FIXPVA TESSELLATION FOR PCM
         PEIFENG SU AND HUI LI
     UNIVERSITY OF NEBRASKA-LINCOLN
     ------------------------------


     -----------------------------
     INPUT FOR PCM GRADIENT METHOD
     -----------------------------
     IPCDER  =         3     IFAST   =         0
     FIXPVA GRADIENTS BY PEIFENG SU AND HUI LI
  

 PCM DIMENSIONS: MXSP=  2000, MXTS=       900, MEMORY=         47803

          ----------------
          PROPERTIES INPUT
          ----------------

     MOMENTS            FIELD           POTENTIAL          DENSITY
 IEMOM =       1   IEFLD =       0   IEPOT =       0   IEDEN =       0
 WHERE =COMASS     WHERE =NUCLEI     WHERE =NUCLEI     WHERE =NUCLEI  
 OUTPUT=BOTH       OUTPUT=BOTH       OUTPUT=BOTH       OUTPUT=BOTH    
 IEMINT=       0   IEFINT=       0                     IEDINT=       0
                                                       MORB  =       0
          EXTRAPOLATION IN EFFECT
          DIIS IN EFFECT
 ORBITAL PRINTING OPTION: NPREO=     1   121     2     1

     -------------------------------
     INTEGRAL TRANSFORMATION OPTIONS
     -------------------------------
     NWORD  =            0
     CUTOFF = 1.0E-09     MPTRAN =       0
     DIRTRF =       T     AOINTS =DUP     

          ----------------------
          INTEGRAL INPUT OPTIONS
          ----------------------
 NOPK  =       1 NORDER=       0 SCHWRZ=       T

     ------------------------------------------
     THE POINT GROUP IS C1 , NAXIS= 1, ORDER= 1
     ------------------------------------------

     DIMENSIONS OF THE SYMMETRY SUBSPACES ARE
 A   =  121

 ..... DONE SETTING UP THE RUN .....
 STEP CPU TIME =     0.03 TOTAL CPU TIME =          0.0 (      0.0 MIN)
 TOTAL WALL CLOCK TIME=          0.0 SECONDS, CPU UTILIZATION IS    75.00%


          -----------------------------
          STATIONARY POINT LOCATION RUN
          -----------------------------

 OBTAINING INITIAL HESSIAN, HESS=GUESS   
 CARTESIAN COORDINATE OPTIMIZATION USING BADGER'S RULE FORCE CONSTANT GUESS

          PARAMETERS CONTROLLING GEOMETRY SEARCH ARE
          METHOD =QA                  UPHESS =BFGS    
          NNEG   =         0          NFRZ   =         0
          NSTEP  =       999          IFOLOW =         1
          HESS   =GUESS               RESTAR =         F
          IHREP  =         0          HSSEND =         F
          NPRT   =         0          NPUN   =         0
          OPTTOL = 5.000E-04          RMIN   = 1.500E-03
          RMAX   = 1.000E-01          RLIM   = 7.000E-02
          DXMAX  = 3.000E-01          PURIFY =         F
          MOVIE  =         F          TRUPD  =         T
          TRMAX  = 5.000E-01          TRMIN  = 5.000E-02
          ITBMAT =         5          STPT   =         F
          STSTEP = 1.000E-02          PROJCT=          T

 BEGINNING GEOMETRY SEARCH POINT NSERCH=   0 ...

 COORDINATES OF ALL ATOMS ARE (ANGS)
   ATOM   CHARGE       X              Y              Z
 ------------------------------------------------------------
 O           8.0  -1.4116800000  -1.2623100000  -0.0946900000
 O           8.0   1.4140200000  -1.2622500000   0.1082200000
 C           6.0  -0.0000400000   0.7124200000   0.0422200000
 C           6.0  -1.3267500000  -0.0564200000  -0.0328300000
 C           6.0   1.3277600000  -0.0568300000   0.0442700000
 C           6.0  -2.5647600000   0.8330800000  -0.0305600000
 C           6.0   2.5652700000   0.8317100000  -0.0192300000
 H           1.0  -0.0229500000   1.3450900000   0.9445900000
 H           1.0   0.0208300000   1.4431300000  -0.7813500000
 H           1.0  -2.6017600000   1.4486400000   0.8780800000
 H           1.0  -2.5491900000   1.5245100000  -0.8825900000
 H           1.0  -3.4590700000   0.2086800000  -0.0840800000
 H           1.0   3.4612300000   0.2088200000   0.0229600000
 H           1.0   2.5743900000   1.4203000000  -0.9460400000
 H           1.0   2.5749200000   1.5481300000   0.8127300000

          ********************
          1 ELECTRON INTEGRALS
          ********************
 ...... END OF ONE-ELECTRON INTEGRALS ......
 STEP CPU TIME =     0.02 TOTAL CPU TIME =          0.0 (      0.0 MIN)
 TOTAL WALL CLOCK TIME=          0.3 SECONDS, CPU UTILIZATION IS    15.62%

          -------------
          GUESS OPTIONS
          -------------
          GUESS =HUCKEL            NORB  =       0          NORDER=       0
          MIX   =       F          PRTMO =       F          PUNMO =       F
          TOLZ  = 1.0E-08          TOLE  = 1.0E-05
          SYMDEN=       F          PURIFY=       F

 INITIAL GUESS ORBITALS GENERATED BY HUCKEL   ROUTINE.
 HUCKEL GUESS REQUIRES    124942 WORDS.

 SYMMETRIES FOR INITIAL GUESS ORBITALS FOLLOW.   BOTH SET(S).
    27 ORBITALS ARE OCCUPIED (    7 CORE ORBITALS).
     8=A        9=A       10=A       11=A       12=A       13=A       14=A   
    15=A       16=A       17=A       18=A       19=A       20=A       21=A   
    22=A       23=A       24=A       25=A       26=A       27=A       28=A   
    29=A       30=A       31=A       32=A       33=A       34=A       35=A   
    36=A       37=A   
 ...... END OF INITIAL ORBITAL SELECTION ......
 STEP CPU TIME =     0.03 TOTAL CPU TIME =          0.1 (      0.0 MIN)
 TOTAL WALL CLOCK TIME=          0.5 SECONDS, CPU UTILIZATION IS    17.39%

                    ----------------------
                    AO INTEGRAL TECHNOLOGY
                    ----------------------
     S,P,L SHELL ROTATED AXIS INTEGRALS, REPROGRAMMED BY
        KAZUYA ISHIMURA (IMS) AND JOSE SIERRA (SYNSTAR).
     S,P,D,L SHELL ROTATED AXIS INTEGRALS PROGRAMMED BY
        KAZUYA ISHIMURA (INSTITUTE FOR MOLECULAR SCIENCE).
     S,P,D,F,G SHELL TO TOTAL QUARTET ANGULAR MOMENTUM SUM 5,
        ERIC PROGRAM BY GRAHAM FLETCHER (ELORET AND NASA ADVANCED
        SUPERCOMPUTING DIVISION, AMES RESEARCH CENTER).
     S,P,D,F,G,L SHELL GENERAL RYS QUADRATURE PROGRAMMED BY
        MICHEL DUPUIS (PACIFIC NORTHWEST NATIONAL LABORATORY).

          --------------------
          2 ELECTRON INTEGRALS
          --------------------

 DIRECT SCF METHOD SKIPS INTEGRAL STORAGE ON DISK.
 DIRECT TRANSFORMATION SKIPS AO INTEGRAL STORAGE ON DISK.
  ...... END OF TWO-ELECTRON INTEGRALS .....
 STEP CPU TIME =     0.00 TOTAL CPU TIME =          0.1 (      0.0 MIN)
 TOTAL WALL CLOCK TIME=          0.6 SECONDS, CPU UTILIZATION IS    14.04%

          -------------------------------------
          ---- POLARISABLE CONTINUUM MODEL ----
          ----      UNIVERSITY OF PISA     ----
          -------------------------------------

     ----------------------------
     INPUT FOR TESSERA DEFINITION
     ----------------------------
     NTSALL  =        60     MTHALL  =         4
     MTHAUT  =         0     AUTFRE  =    2.0000
     NTSFRZ  =        60     KEEPSM  =         0
     AREAKP  =   10.0000     BONDRY  =    1.0000
     AREATL  =    0.0100

     SPHERE     INITS       METHOD
          1        60       FIXPVA
          2        60       FIXPVA
          3        60       FIXPVA
          4        60       FIXPVA
          5        60       FIXPVA
          6        60       FIXPVA
          7        60       FIXPVA
          8        60       FIXPVA
          9        60       FIXPVA
         10        60       FIXPVA
         11        60       FIXPVA
         12        60       FIXPVA
         13        60       FIXPVA
         14        60       FIXPVA
         15        60       FIXPVA

     ------------------------------
      FIXPVA TESSELLATION FOR PCM
         PEIFENG SU AND HUI LI
     UNIVERSITY OF NEBRASKA-LINCOLN
     ------------------------------


     INPUT FOR CAVITY DEFINITION 
     ---------------------------
   ATOM               COORDINATES                RADIUS       EPS
      1     -1.4117     -1.2623     -0.0947      1.5000     78.3900
      2      1.4140     -1.2623      0.1082      1.5000     78.3900
      3     -0.0000      0.7124      0.0422      1.7000     78.3900
      4     -1.3268     -0.0564     -0.0328      1.7000     78.3900
      5      1.3278     -0.0568      0.0443      1.7000     78.3900
      6     -2.5648      0.8331     -0.0306      1.7000     78.3900
      7      2.5653      0.8317     -0.0192      1.7000     78.3900
      8     -0.0230      1.3451      0.9446      1.2000     78.3900
      9      0.0208      1.4431     -0.7814      1.2000     78.3900
     10     -2.6018      1.4486      0.8781      1.2000     78.3900
     11     -2.5492      1.5245     -0.8826      1.2000     78.3900
     12     -3.4591      0.2087     -0.0841      1.2000     78.3900
     13      3.4612      0.2088      0.0230      1.2000     78.3900
     14      2.5744      1.4203     -0.9460      1.2000     78.3900
     15      2.5749      1.5481      0.8127      1.2000     78.3900

 MEMORY USED TO GENERATE CAVITY=    279742


 TOTAL NUMBER OF SPHERES=    15
 SPHERE           CENTER  (X,Y,Z) (A)               RADIUS (A)      AREA(A*A)
     1  -1.411680000  -1.262310000  -0.094690000   1.800000000  17.406024049
     2   1.414020000  -1.262250000   0.108220000   1.800000000  17.416291578
     3  -0.000040000   0.712420000   0.042220000   2.040000000   1.429118052
     4  -1.326750000  -0.056420000  -0.032830000   2.040000000   4.301713185
     5   1.327760000  -0.056830000   0.044270000   2.040000000   5.861383673
     6  -2.564760000   0.833080000  -0.030560000   2.040000000   9.212910975
     7   2.565270000   0.831710000  -0.019230000   2.040000000   9.284504938
     8  -0.022950000   1.345090000   0.944590000   1.440000000   4.709919648
     9   0.020830000   1.443130000  -0.781350000   1.440000000   4.867753701
    10  -2.601760000   1.448640000   0.878080000   1.440000000   6.180640105
    11  -2.549190000   1.524510000  -0.882590000   1.440000000   6.526873219
    12  -3.459070000   0.208680000  -0.084080000   1.440000000   7.019370020
    13   3.461230000   0.208820000   0.022960000   1.440000000   7.003575827
    14   2.574390000   1.420300000  -0.946040000   1.440000000   6.001266224
    15   2.574920000   1.548130000   0.812730000   1.440000000   6.608411999

 TOTAL NUMBER OF TESSERAE=     276
 SURFACE AREA=   113.82975719(A**2)    CAVITY VOLUME=    109.74591249 (A**3)
 STEP CPU TIME =     0.01 TOTAL CPU TIME =          0.1 (      0.0 MIN)
 TOTAL WALL CLOCK TIME=          0.7 SECONDS, CPU UTILIZATION IS    12.68%

          THE SOLUTE IS ENCLOSED IN ONE CAVITY
 DONE CHECKING SEPARATION.
 STEP CPU TIME =     0.00 TOTAL CPU TIME =          0.1 (      0.0 MIN)
 TOTAL WALL CLOCK TIME=          0.8 SECONDS, CPU UTILIZATION IS    10.59%
 
 ..... DONE GENERATING CAVITY .....
 STEP CPU TIME =     0.00 TOTAL CPU TIME =          0.1 (      0.0 MIN)
 TOTAL WALL CLOCK TIME=          1.0 SECONDS, CPU UTILIZATION IS     9.09%
 NUCLEI-NUCLEAR CHARGE POLARIZATION ADJUSTMENT TO VNN=        0.0000000000

          --------------------------
             R-B3LYP SCF CALCULATION
          --------------------------

     NUCLEAR ENERGY =       290.1566921714
     MAXIT =  200     NPUNCH=    2
     EXTRAP=T  DAMP=F  SHIFT=F  RSTRCT=F  DIIS=T  DEM=F  SOSCF=F
         DENSITY MATRIX CONVERGENCE THRESHOLD=  2.00E-05
     COARSE -> FINE DFT GRID SWITCH THRESHOLD=  3.00E-04 (SWITCH IN $DFT)
                   HF -> DFT SWITCH THRESHOLD=  5.00E-03 (SWOFF IN $DFT)
     MEMORY REQUIRED FOR RHF ITERS=   1210462 WORDS.

 DIRECT SCF CALCULATION, SCHWRZ=T   FDIFF=F,  DIRTHR=  0.00E+00 NITDIR=10
 SCHWARZ INEQUALITY OVERHEAD:      7239 INTEGRALS, T=        0.00

     EXCHANGE FUNCTIONAL   =B88&HFX   
     CORRELATION FUNCTIONAL=LYP88&VWN5
     DFT THRESHOLD         =.118E-08
     GRID CHANGE THRESHOLD =.300E-03
 FOR AN EULER-MACLAURIN QUADRATURE USING  96 RADIAL POINTS:
 SMALLEST GAUSSIAN PRIMITIVE EXPONENT=        0.1612777588 OF TYPE -S-
 ON ATOM NUMBER   8 HAS RADIAL NORMALIZATION=  1.000000
  LARGEST GAUSSIAN PRIMITIVE EXPONENT=     5484.6716600000 OF TYPE -S-
 ON ATOM NUMBER   1 HAS RADIAL NORMALIZATION=  1.000000
 DFT IS SWITCHED OFF, PERFORMING PURE SCF UNTIL SWOFF THRESHOLD IS REACHED.

                                                                                   NONZERO     BLOCKS
 ITER EX DEM     TOTAL ENERGY        E CHANGE  DENSITY CHANGE    DIIS ERROR      INTEGRALS    SKIPPED
   1  0  0     -342.7106368283  -342.7106368283   0.253983875   0.676683850       19793950     154080
          * * *   INITIATING DIIS PROCEDURE   * * *
   2  1  0     -343.6074351611    -0.8967983329   0.152056311   0.149004420       19808017     154384
   3  2  0     -343.6782424193    -0.0708072582   0.077190090   0.090305633       19803004     154166
   4  3  0     -343.7330525052    -0.0548100859   0.012583212   0.011089229       19806060     153978
   5  4  0     -343.7343546392    -0.0013021340   0.004476954   0.003469328       19806801     153906
 CONVERGED TO SWOFF, SO DFT CALCULATION IS NOW SWITCHED ON.
          * * *   INITIATING DIIS PROCEDURE   * * *
   6  5  0     -345.5617475686    -1.8273929295   0.108325261   0.103896865       19806957     153883
   7  6  0     -345.5910254658    -0.0292778972   0.056893957   0.039053868       19811962     152828
   8  7  0     -345.5851562161     0.0058692497   0.045324560   0.056263193       19809991     152693
   9  8  0     -345.5988704465    -0.0137142304   0.008550001   0.010270573       19810636     152628
  10  9  0     -345.5993510566    -0.0004806101   0.000604858   0.000411091       19810619     152677
  11 10  0     -345.5993524994    -0.0000014428   0.000215294   0.000169764       19810650     152672
  12 11  0     -345.5993527620    -0.0000002626   0.000102369   0.000054491       19810640     152672
  13 12  0     -345.5993527959    -0.0000000339   0.000036707   0.000034199       19810640     152673
  14 13  0     -345.5993528023    -0.0000000064   0.000005094   0.000004148       19810640     152673
  15 14  0     -345.5993528024    -0.0000000001   0.000001912   0.000001076       19810640     152673

          -----------------
          DENSITY CONVERGED
          -----------------
     TIME TO FORM FOCK OPERATORS=      41.6 SECONDS (       2.8 SEC/ITER)
     FOCK TIME ON FIRST ITERATION=       0.8, LAST ITERATION=       3.8
     TIME TO SOLVE SCF EQUATIONS=       0.2 SECONDS (       0.0 SEC/ITER)

 FINAL R-B3LYP ENERGY IS     -345.5993528024 AFTER  15 ITERATIONS
 DFT EXCHANGE + CORRELATION ENERGY =       -38.0196212594
 TOTAL ELECTRON NUMBER             =        53.9999727624
  
   PCM ASC=     -0.0058532239
   GCAVP  =      0.0000000000
   GDISP  =      0.0000000000
   GREP   =      0.0000000000

          ------------
          EIGENVECTORS
          ------------

                      1          2          3          4          5
                  -19.1438   -19.1434   -10.2852   -10.2848   -10.2017
                     A          A          A          A          A   
    1  O  1  S    0.992674   0.006107  -0.000082  -0.000042   0.000008
    2  O  1  S    0.025488   0.000329   0.000695  -0.000168   0.000022
    3  O  1  X    0.000066   0.000056  -0.000021  -0.000014   0.000031
    4  O  1  Y    0.001127   0.000012  -0.000047  -0.000021  -0.000006
    5  O  1  Z    0.000055   0.000005  -0.000002   0.000001   0.000000
    6  O  1  S    0.015341  -0.000902  -0.004852   0.001057  -0.000618
    7  O  1  X    0.000138  -0.000165  -0.000074   0.000031  -0.000686
    8  O  1  Y    0.002011  -0.000162  -0.002495   0.000288  -0.000113
    9  O  1  Z    0.000105  -0.000012  -0.000128   0.000002  -0.000029
   10  O  1 XX   -0.008297   0.000092   0.000461  -0.000137   0.000054
   11  O  1 YY   -0.007687   0.000103  -0.000226  -0.000089   0.000092
   12  O  1 ZZ   -0.008323   0.000126   0.000634  -0.000124  -0.000073
   13  O  1 XY    0.000049  -0.000026  -0.000043   0.000014  -0.000116
   14  O  1 XZ    0.000004  -0.000007  -0.000008   0.000000  -0.000001
   15  O  1 YZ    0.000038  -0.000001  -0.000051   0.000001   0.000005
   16  O  2  S   -0.006009   0.992674  -0.000041  -0.000082   0.000006
   17  O  2  S    0.000017   0.025490  -0.000174   0.000696   0.000010
   18  O  2  X   -0.000055  -0.000068   0.000013   0.000021  -0.000030
   19  O  2  Y   -0.000002   0.001127  -0.000020  -0.000047  -0.000007
   20  O  2  Z   -0.000008  -0.000059   0.000005  -0.000000  -0.000006
   21  O  2  S   -0.001084   0.015338   0.001101  -0.004863  -0.000548
   22  O  2  X    0.000164  -0.000138  -0.000036   0.000077   0.000679
   23  O  2  Y   -0.000184   0.002011   0.000308  -0.002496  -0.000093
   24  O  2  Z    0.000037  -0.000112  -0.000032   0.000149   0.000015
   25  O  2 XX    0.000193  -0.008296  -0.000141   0.000461   0.000046
   26  O  2 YY    0.000197  -0.007686  -0.000087  -0.000225   0.000086
   27  O  2 ZZ    0.000227  -0.008322  -0.000129   0.000634  -0.000082
   28  O  2 XY    0.000026  -0.000049  -0.000015   0.000045   0.000113
   29  O  2 XZ   -0.000006   0.000002   0.000001   0.000001  -0.000016
   30  O  2 YZ    0.000006  -0.000040  -0.000004   0.000057  -0.000009
   31  C  3  S    0.000003   0.000005   0.001140   0.001161   0.993028
   32  C  3  S    0.000048   0.000054  -0.000093  -0.000095   0.050894
   33  C  3  X   -0.000052   0.000051   0.000246  -0.000246  -0.000003
   34  C  3  Y   -0.000001  -0.000001   0.000220   0.000220   0.000115
   35  C  3  Z   -0.000003  -0.000003   0.000019   0.000023   0.000024
   36  C  3  S   -0.000766  -0.000815   0.004090   0.004139  -0.022394
   37  C  3  X    0.001343  -0.001325  -0.003043   0.003036  -0.000008
   38  C  3  Y   -0.000283  -0.000281  -0.000890  -0.000877   0.001887
   39  C  3  Z    0.000020   0.000072  -0.000128  -0.000194  -0.000007
   40  C  3 XX   -0.000007  -0.000006  -0.000326  -0.000329  -0.009049
   41  C  3 YY   -0.000002  -0.000001  -0.000299  -0.000303  -0.009152
   42  C  3 ZZ   -0.000011  -0.000008  -0.000073  -0.000074  -0.008889
   43  C  3 XY   -0.000009   0.000008  -0.000195   0.000194  -0.000000
   44  C  3 XZ   -0.000002   0.000006  -0.000015  -0.000007  -0.000009
   45  C  3 YZ    0.000001   0.000007  -0.000018  -0.000003  -0.000016
   46  C  4  S   -0.000023   0.000012   0.992952   0.004101  -0.001371
   47  C  4  S    0.000342   0.000027   0.048841   0.000141  -0.000311
   48  C  4  X    0.000022  -0.000026  -0.000051  -0.000004  -0.000143
   49  C  4  Y    0.000050  -0.000017  -0.000870   0.000032  -0.000047
   50  C  4  Z    0.000002   0.000006  -0.000044   0.000006  -0.000008
   51  C  4  S   -0.002492  -0.000358  -0.010826  -0.000090   0.005157
   52  C  4  X    0.000386   0.000029  -0.000727   0.000009   0.003955
   53  C  4  Y    0.004520  -0.000712  -0.005671   0.000848   0.000576
   54  C  4  Z    0.000235  -0.000081  -0.000293   0.000083   0.000169
   55  C  4 XX   -0.000043   0.000037  -0.009353  -0.000070  -0.000311
   56  C  4 YY   -0.000957   0.000008  -0.008099  -0.000042  -0.000211
   57  C  4 ZZ   -0.000073   0.000020  -0.009415  -0.000069  -0.000157
   58  C  4 XY   -0.000069  -0.000061   0.000096   0.000036  -0.000190
   59  C  4 XZ   -0.000002  -0.000006   0.000007   0.000010  -0.000012
   60  C  4 YZ   -0.000053  -0.000007   0.000077   0.000006  -0.000006
   61  C  5  S    0.000012  -0.000023  -0.004128   0.992953  -0.001383
   62  C  5  S    0.000024   0.000340  -0.000264   0.048844  -0.000315
   63  C  5  X    0.000026  -0.000022   0.000002   0.000049   0.000142
   64  C  5  Y   -0.000018   0.000050   0.000039  -0.000872  -0.000045
   65  C  5  Z   -0.000001  -0.000003   0.000000   0.000056   0.000000
   66  C  5  S   -0.000343  -0.002483   0.000005  -0.010837   0.005140
   67  C  5  X   -0.000004  -0.000395   0.000002   0.000737  -0.003958
   68  C  5  Y   -0.000767   0.004523   0.000909  -0.005685   0.000623
   69  C  5  Z    0.000002  -0.000230   0.000002   0.000251   0.000041
   70  C  5 XX    0.000037  -0.000042   0.000008  -0.009352  -0.000311
   71  C  5 YY    0.000020  -0.000958   0.000025  -0.008098  -0.000212
   72  C  5 ZZ    0.000022  -0.000073   0.000008  -0.009414  -0.000156
   73  C  5 XY    0.000061   0.000071  -0.000035  -0.000099   0.000189
   74  C  5 XZ    0.000002  -0.000004  -0.000002  -0.000004  -0.000005
   75  C  5 YZ    0.000004   0.000054   0.000008  -0.000078  -0.000006
   76  C  6  S    0.000006   0.000004   0.000997  -0.000027  -0.000310
   77  C  6  S    0.000084   0.000016  -0.000117  -0.000096  -0.000300
   78  C  6  X   -0.000017   0.000037  -0.000109  -0.000058  -0.000074
   79  C  6  Y    0.000008  -0.000000   0.000204  -0.000022  -0.000049
   80  C  6  Z   -0.000000  -0.000002   0.000005  -0.000003  -0.000003
   81  C  6  S   -0.000845   0.000256   0.003961   0.000161   0.001790
   82  C  6  X   -0.000783   0.000017   0.001996   0.000222   0.000441
   83  C  6  Y   -0.000366  -0.000046  -0.000618   0.000136  -0.000273
   84  C  6  Z   -0.000045   0.000026   0.000042   0.000005  -0.000013
   85  C  6 XX   -0.000058   0.000009  -0.000228  -0.000027  -0.000081
   86  C  6 YY    0.000018  -0.000005  -0.000378  -0.000027   0.000002
   87  C  6 ZZ   -0.000014   0.000017  -0.000040  -0.000038  -0.000131
   88  C  6 XY    0.000009   0.000010   0.000204  -0.000012  -0.000004
   89  C  6 XZ   -0.000002   0.000002   0.000003  -0.000001   0.000001
   90  C  6 YZ    0.000002  -0.000001  -0.000011   0.000001   0.000007
   91  C  7  S    0.000004   0.000006  -0.000034   0.000994  -0.000303
   92  C  7  S    0.000016   0.000085  -0.000092  -0.000118  -0.000297
   93  C  7  X   -0.000037   0.000016   0.000056   0.000109   0.000075
   94  C  7  Y   -0.000000   0.000008  -0.000023   0.000202  -0.000047
   95  C  7  Z   -0.000000  -0.000001   0.000001  -0.000018   0.000011
   96  C  7  S    0.000255  -0.000852   0.000103   0.003970   0.001765
   97  C  7  X   -0.000025   0.000790  -0.000193  -0.002006  -0.000433
   98  C  7  Y   -0.000037  -0.000370   0.000140  -0.000607  -0.000291
   99  C  7  Z    0.000018   0.000008  -0.000026   0.000109  -0.000024
  100  C  7 XX    0.000011  -0.000058  -0.000024  -0.000228  -0.000080
  101  C  7 YY   -0.000005   0.000019  -0.000023  -0.000378   0.000003
  102  C  7 ZZ    0.000018  -0.000014  -0.000037  -0.000041  -0.000131
  103  C  7 XY   -0.000010  -0.000009   0.000013  -0.000203   0.000005
  104  C  7 XZ   -0.000000   0.000001  -0.000002   0.000012  -0.000005
  105  C  7 YZ    0.000001  -0.000003   0.000002   0.000025  -0.000009
  106  H  8  S    0.000018   0.000006  -0.000145  -0.000139   0.000158
  107  H  8  S    0.000066   0.000050   0.000235   0.000348   0.002945
  108  H  9  S    0.000017   0.000032  -0.000136  -0.000144   0.000136
  109  H  9  S    0.000075   0.000099   0.000202   0.000078   0.002897
  110  H 10  S    0.000025   0.000004  -0.000164  -0.000032  -0.000041
  111  H 10  S    0.000125  -0.000028   0.000103  -0.000074  -0.000302
  112  H 11  S    0.000024   0.000005  -0.000165  -0.000037  -0.000041
  113  H 11  S    0.000121  -0.000000   0.000116  -0.000066  -0.000322
  114  H 12  S    0.000021  -0.000006  -0.000077   0.000009  -0.000073
  115  H 12  S   -0.000312  -0.000073   0.000099   0.000154   0.000141
  116  H 13  S   -0.000006   0.000020   0.000010  -0.000077  -0.000073
  117  H 13  S   -0.000069  -0.000314   0.000151   0.000103   0.000137
  118  H 14  S    0.000006   0.000026  -0.000027  -0.000171  -0.000040
  119  H 14  S   -0.000008   0.000113  -0.000092   0.000160  -0.000338
  120  H 15  S    0.000003   0.000024  -0.000037  -0.000161  -0.000040
  121  H 15  S   -0.000021   0.000135  -0.000044   0.000055  -0.000264

                      6          7          8          9         10
                  -10.1833   -10.1829    -1.0512    -1.0413    -0.7859
                     A          A          A          A          A   
    1  O  1  S   -0.000010  -0.000014  -0.137860   0.137520   0.048712
    2  O  1  S   -0.000075  -0.000053   0.297337  -0.296072  -0.110791
    3  O  1  X   -0.000017   0.000000   0.009408  -0.005200   0.006990
    4  O  1  Y   -0.000015  -0.000008   0.114185  -0.113519  -0.001567
    5  O  1  Z   -0.000001   0.000001   0.005861  -0.005623   0.000033
    6  O  1  S   -0.000096   0.000177   0.286674  -0.295126  -0.108640
    7  O  1  X    0.000503  -0.000126   0.003518   0.000449   0.003661
    8  O  1  Y    0.000025   0.000054   0.038529  -0.040961   0.008744
    9  O  1  Z    0.000016  -0.000012   0.002033  -0.001721   0.000504
   10  O  1 XX    0.000018  -0.000031  -0.007944   0.009328   0.000965
   11  O  1 YY    0.000049  -0.000026   0.006649  -0.006529   0.002544
   12  O  1 ZZ   -0.000126  -0.000065  -0.005043   0.005234  -0.000133
   13  O  1 XY    0.000072  -0.000023   0.001415  -0.001082   0.001147
   14  O  1 XZ    0.000010  -0.000000  -0.000049   0.000145   0.000086
   15  O  1 YZ    0.000012  -0.000001   0.000713  -0.000675   0.000175
   16  O  2  S   -0.000013  -0.000011  -0.133997  -0.141293   0.048313
   17  O  2  S   -0.000048  -0.000079   0.288988   0.304147  -0.109834
   18  O  2  X   -0.000001   0.000017  -0.009396  -0.005611  -0.007164
   19  O  2  Y   -0.000008  -0.000015   0.110999   0.116644  -0.001629
   20  O  2  Z    0.000002  -0.000001  -0.005898  -0.005974   0.000607
   21  O  2  S    0.000149  -0.000069   0.278387   0.303050  -0.107861
   22  O  2  X    0.000137  -0.000507  -0.003588   0.000280  -0.003700
   23  O  2  Y    0.000044   0.000032   0.037356   0.041990   0.008610
   24  O  2  Z   -0.000012   0.000015  -0.001877  -0.002129  -0.000359
   25  O  2 XX   -0.000028   0.000016  -0.007681  -0.009553   0.000977
   26  O  2 YY   -0.000025   0.000047   0.006460   0.006688   0.002517
   27  O  2 ZZ   -0.000062  -0.000129  -0.004898  -0.005384  -0.000121
   28  O  2 XY    0.000025  -0.000073  -0.001398  -0.001137  -0.001169
   29  O  2 XZ   -0.000000   0.000001   0.000145   0.000035   0.000027
   30  O  2 YZ   -0.000004  -0.000009  -0.000676  -0.000740  -0.000113
   31  C  3  S    0.000196   0.000190  -0.023522  -0.000363  -0.147455
   32  C  3  S   -0.000255  -0.000258   0.041471   0.000668   0.281912
   33  C  3  X    0.000136  -0.000135  -0.000308   0.026225  -0.000460
   34  C  3  Y   -0.000089  -0.000086  -0.023477  -0.000368   0.003750
   35  C  3  Z   -0.000000  -0.000011  -0.000655   0.001190  -0.000283
   36  C  3  S    0.001070   0.001101   0.012063   0.000168   0.245238
   37  C  3  X   -0.001369   0.001345   0.000435  -0.027903  -0.000385
   38  C  3  Y    0.000384   0.000335  -0.011491  -0.000281   0.008361
   39  C  3  Z   -0.000034   0.000120   0.001144   0.001294   0.000554
   40  C  3 XX   -0.000069  -0.000068   0.004445   0.000081   0.002232
   41  C  3 YY   -0.000052  -0.000049   0.003722   0.000055  -0.003313
   42  C  3 ZZ   -0.000101  -0.000103  -0.001653  -0.000029  -0.000166
   43  C  3 XY    0.000076  -0.000075   0.000075  -0.006785   0.000018
   44  C  3 XZ    0.000004  -0.000009   0.000382  -0.000125   0.000026
   45  C  3 YZ    0.000005  -0.000012   0.000256  -0.000258  -0.000139
   46  C  4  S   -0.001213  -0.000019  -0.086811   0.082575  -0.064242
   47  C  4  S   -0.000242  -0.000113   0.167719  -0.158890   0.128922
   48  C  4  X    0.000204  -0.000052  -0.004641   0.013723   0.042727
   49  C  4  Y   -0.000046   0.000020  -0.127623   0.130432   0.135965
   50  C  4  Z    0.000004  -0.000010  -0.006371   0.006960   0.007601
   51  C  4  S    0.004001   0.000581   0.056032  -0.068162   0.090431
   52  C  4  X   -0.003237   0.001036   0.000842  -0.003697   0.003063
   53  C  4  Y    0.000982   0.000076   0.028911  -0.044032   0.034975
   54  C  4  Z   -0.000053   0.000061   0.000993  -0.002721   0.001627
   55  C  4 XX   -0.000320  -0.000001  -0.012792   0.014362   0.010891
   56  C  4 YY   -0.000251  -0.000028   0.015693  -0.015533  -0.008960
   57  C  4 ZZ   -0.000129  -0.000063  -0.014447   0.014011  -0.004662
   58  C  4 XY    0.000158   0.000030   0.002408  -0.002370   0.001894
   59  C  4 XZ    0.000001   0.000001   0.000165  -0.000114   0.000604
   60  C  4 YZ   -0.000001  -0.000000   0.001766  -0.001784  -0.000209
   61  C  5  S   -0.000016  -0.001211  -0.084498  -0.084964  -0.063547
   62  C  5  S   -0.000116  -0.000241   0.163295   0.163533   0.127605
   63  C  5  X    0.000055  -0.000204   0.004333   0.013926  -0.043546
   64  C  5  Y    0.000019  -0.000046  -0.124003  -0.133952   0.134725
   65  C  5  Z   -0.000001   0.000002   0.006649   0.007286  -0.005218
   66  C  5  S    0.000618   0.003978   0.053981   0.069532   0.089431
   67  C  5  X   -0.001086   0.003252  -0.000636  -0.003761  -0.003234
   68  C  5  Y    0.000066   0.000995   0.027659   0.044912   0.034456
   69  C  5  Z    0.000021  -0.000136  -0.001790  -0.001757  -0.001258
   70  C  5 XX    0.000000  -0.000321  -0.012385  -0.014711   0.010874
   71  C  5 YY   -0.000028  -0.000251   0.015253   0.015959  -0.008861
   72  C  5 ZZ   -0.000065  -0.000129  -0.014059  -0.014415  -0.004629
   73  C  5 XY   -0.000029  -0.000158  -0.002368  -0.002476  -0.001983
   74  C  5 XZ    0.000002   0.000016   0.000156   0.000059  -0.000375
   75  C  5 YZ    0.000000   0.000005  -0.001772  -0.001890   0.000421
   76  C  6  S    0.992892   0.001615  -0.012193   0.012100  -0.066755
   77  C  6  S    0.050397   0.000002   0.022491  -0.022393   0.127431
   78  C  6  X    0.000163  -0.000020   0.012011  -0.010927   0.035941
   79  C  6  Y    0.000085  -0.000017  -0.013948   0.014062  -0.003926
   80  C  6  Z    0.000008   0.000001  -0.000296   0.000322   0.000885
   81  C  6  S   -0.017990   0.000539   0.002457   0.003365   0.100825
   82  C  6  X   -0.001304   0.000279  -0.006434   0.008731   0.004704
   83  C  6  Y    0.000722  -0.000202  -0.005565   0.005346   0.003210
   84  C  6  Z   -0.000005  -0.000024  -0.000299   0.000744   0.000377
   85  C  6 XX   -0.009233  -0.000030   0.001882  -0.001503   0.002377
   86  C  6 YY   -0.009253  -0.000010   0.002706  -0.002949  -0.001179
   87  C  6 ZZ   -0.009164  -0.000046  -0.000787   0.000877  -0.000324
   88  C  6 XY    0.000093  -0.000021  -0.003334   0.003211  -0.000888
   89  C  6 XZ    0.000002  -0.000002  -0.000053   0.000082   0.000055
   90  C  6 YZ   -0.000002   0.000001   0.000076  -0.000109  -0.000076
   91  C  7  S   -0.001646   0.992893  -0.011816  -0.012398  -0.065480
   92  C  7  S   -0.000164   0.050391   0.021814   0.022937   0.124976
   93  C  7  X    0.000020  -0.000159  -0.011670  -0.011217  -0.035483
   94  C  7  Y   -0.000017   0.000083  -0.013513  -0.014395  -0.003818
   95  C  7  Z    0.000000  -0.000009   0.000857   0.000965   0.000794
   96  C  7  S    0.000609  -0.017984   0.002423  -0.003310   0.098920
   97  C  7  X   -0.000284   0.001299   0.006266   0.008949  -0.004660
   98  C  7  Y   -0.000212   0.000731  -0.005380  -0.005544   0.003312
   99  C  7  Z    0.000014  -0.000023   0.000311  -0.000236  -0.000272
  100  C  7 XX   -0.000000  -0.009233   0.001837   0.001548   0.002365
  101  C  7 YY    0.000022  -0.009253   0.002618   0.003014  -0.001171
  102  C  7 ZZ   -0.000016  -0.009164  -0.000744  -0.000883  -0.000334
  103  C  7 XY    0.000022  -0.000093   0.003230   0.003292   0.000879
  104  C  7 XZ   -0.000002   0.000006  -0.000211  -0.000198  -0.000120
  105  C  7 YZ   -0.000002   0.000006  -0.000264  -0.000304   0.000062
  106  H  8  S   -0.000094  -0.000084   0.007637   0.000101   0.091721
  107  H  8  S   -0.000319  -0.000388  -0.000542  -0.000600   0.013901
  108  H  9  S   -0.000098  -0.000106   0.007639   0.000148   0.092050
  109  H  9  S   -0.000330  -0.000231   0.000410   0.000683   0.014229
  110  H 10  S   -0.000002  -0.000035   0.003905  -0.003958   0.040302
  111  H 10  S    0.002782   0.000058   0.000725  -0.001271   0.007640
  112  H 11  S   -0.000003  -0.000033   0.003920  -0.003959   0.040354
  113  H 11  S    0.002788   0.000023   0.000901  -0.001070   0.007709
  114  H 12  S   -0.000023  -0.000018   0.005395  -0.005580   0.030815
  115  H 12  S    0.002591   0.000061  -0.001410   0.000603   0.003536
  116  H 13  S   -0.000018  -0.000024   0.005218   0.005702   0.030153
  117  H 13  S    0.000052   0.002596  -0.001410  -0.000657   0.003490
  118  H 14  S   -0.000033  -0.000002   0.003828   0.004058   0.039312
  119  H 14  S    0.000029   0.002797   0.000704   0.000843   0.007403
  120  H 15  S   -0.000036  -0.000002   0.003762   0.004053   0.039747
  121  H 15  S    0.000037   0.002762   0.000846   0.001511   0.007413

                     11         12         13         14         15
                   -0.7411    -0.7029    -0.5659    -0.5116    -0.4732
                     A          A          A          A          A   
    1  O  1  S    0.038831   0.002143  -0.046096  -0.068485   0.002380
    2  O  1  S   -0.088783  -0.004962   0.105884   0.149868  -0.004915
    3  O  1  X   -0.016671  -0.044722  -0.041835  -0.003170  -0.026823
    4  O  1  Y    0.007945   0.004322  -0.093465  -0.221217   0.006832
    5  O  1  Z   -0.000002  -0.001318  -0.005989  -0.009069   0.143530
    6  O  1  S   -0.093786  -0.006011   0.134068   0.241544  -0.009315
    7  O  1  X   -0.006185  -0.021940  -0.024305  -0.000057  -0.016277
    8  O  1  Y    0.010321   0.002047  -0.056964  -0.124464   0.003906
    9  O  1  Z    0.000444  -0.000649  -0.003644  -0.004959   0.082307
   10  O  1 XX    0.000562  -0.000628   0.000631  -0.000382  -0.000299
   11  O  1 YY    0.003094   0.000726  -0.009804  -0.020630   0.000263
   12  O  1 ZZ   -0.000542  -0.000162   0.001646   0.000811   0.001019
   13  O  1 XY   -0.002116  -0.005192  -0.004026  -0.000286  -0.001994
   14  O  1 XZ   -0.000030  -0.000273  -0.000267   0.000024   0.001015
   15  O  1 YZ    0.000144  -0.000127  -0.000753  -0.001080   0.011383
   16  O  2  S   -0.039287   0.002528   0.045893  -0.068346   0.001840
   17  O  2  S    0.089781  -0.005867  -0.105387   0.149563  -0.003748
   18  O  2  X   -0.016078   0.044914  -0.042169   0.003773   0.005324
   19  O  2  Y   -0.007895   0.004421   0.092848  -0.219958   0.016303
   20  O  2  Z    0.000677  -0.001210  -0.002389   0.016235   0.141865
   21  O  2  S    0.094952  -0.006891  -0.133567   0.240770  -0.007416
   22  O  2  X   -0.005894   0.021980  -0.024456   0.000401   0.002986
   23  O  2  Y   -0.010384   0.002206   0.056600  -0.123966   0.008940
   24  O  2  Z    0.000767  -0.000507  -0.002081   0.008815   0.081651
   25  O  2 XX   -0.000584  -0.000647  -0.000603  -0.000368   0.000022
   26  O  2 YY   -0.003117   0.000745   0.009767  -0.020545   0.001813
   27  O  2 ZZ    0.000523  -0.000152  -0.001654   0.000743  -0.000964
   28  O  2 XY   -0.002038   0.005210  -0.004062   0.000359   0.000275
   29  O  2 XZ    0.000078  -0.000273   0.000220   0.000047  -0.001173
   30  O  2 YZ    0.000231  -0.000166  -0.000452   0.001711   0.011236
   31  C  3  S    0.001431   0.108948  -0.000261  -0.046271   0.000249
   32  C  3  S   -0.002722  -0.209830   0.000573   0.090144  -0.000946
   33  C  3  X   -0.082703   0.000640   0.249725  -0.001444   0.000166
   34  C  3  Y    0.000022   0.004576   0.000104   0.192293   0.005303
   35  C  3  Z   -0.000470  -0.002367   0.007922   0.013829   0.302985
   36  C  3  S   -0.002991  -0.229945   0.000764   0.142666  -0.000892
   37  C  3  X   -0.025493   0.000481   0.071669  -0.001203   0.001157
   38  C  3  Y   -0.000083   0.001862   0.000129   0.087674   0.002442
   39  C  3  Z    0.000075  -0.000951   0.002902   0.005506   0.143849
   40  C  3 XX    0.000013   0.005632  -0.000018  -0.015321  -0.000238
   41  C  3 YY    0.000015  -0.000562   0.000005   0.002227  -0.001532
   42  C  3 ZZ    0.000013  -0.001243   0.000005   0.010474   0.002276
   43  C  3 XY    0.002909  -0.000021  -0.013263   0.000056  -0.000447
   44  C  3 XZ    0.000336   0.000002  -0.000505  -0.000745  -0.000149
   45  C  3 YZ    0.000063  -0.000009  -0.000269  -0.000485   0.012521
   46  C  4  S   -0.058450  -0.001794   0.099803   0.090082  -0.002705
   47  C  4  S    0.119830   0.003567  -0.218271  -0.204567   0.006278
   48  C  4  X   -0.059619  -0.149001  -0.089579   0.032135  -0.035437
   49  C  4  Y    0.118535   0.013004  -0.098227   0.024945  -0.012405
   50  C  4  Z    0.004014  -0.004330  -0.007331   0.004523   0.185289
   51  C  4  S    0.081144   0.005338  -0.194365  -0.172960   0.005117
   52  C  4  X   -0.006053  -0.017007  -0.021701   0.007588  -0.010122
   53  C  4  Y    0.023989   0.002622  -0.059629  -0.040125  -0.002084
   54  C  4  Z    0.001040  -0.000401  -0.003977  -0.000160   0.084107
   55  C  4 XX    0.006123  -0.000282   0.005091   0.002903  -0.000567
   56  C  4 YY   -0.006678   0.000645   0.008402   0.012464  -0.000167
   57  C  4 ZZ   -0.004238  -0.000128   0.006927   0.007077  -0.000183
   58  C  4 XY   -0.006291  -0.010154  -0.004061   0.003725   0.000762
   59  C  4 XZ    0.000121  -0.000492  -0.000245   0.000163   0.003158
   60  C  4 YZ   -0.000355  -0.000290  -0.000025   0.000381  -0.000514
   61  C  5  S    0.059080  -0.002558  -0.099349   0.090425  -0.000231
   62  C  5  S   -0.121188   0.005164   0.217365  -0.205407   0.000633
   63  C  5  X   -0.057229   0.149631  -0.090431  -0.031010   0.007173
   64  C  5  Y   -0.119710   0.014184   0.098367   0.024055   0.002906
   65  C  5  Z    0.006695  -0.004163   0.000742   0.006839   0.185205
   66  C  5  S   -0.081822   0.006350   0.192877  -0.172477   0.000141
   67  C  5  X   -0.005890   0.017197  -0.022016  -0.007553   0.004906
   68  C  5  Y   -0.024036   0.002920   0.059034  -0.039999   0.004699
   69  C  5  Z    0.001412  -0.000694  -0.000896   0.005229   0.082838
   70  C  5 XX   -0.006253  -0.000263  -0.005012   0.002958  -0.000048
   71  C  5 YY    0.006765   0.000568  -0.008364   0.012467  -0.000640
   72  C  5 ZZ    0.004274  -0.000138  -0.006917   0.007088   0.000430
   73  C  5 XY   -0.006136   0.010219  -0.004093  -0.003718  -0.000219
   74  C  5 XZ    0.000527  -0.000366  -0.000181  -0.000106  -0.003233
   75  C  5 YZ   -0.000160  -0.000285   0.000293  -0.000166  -0.000522
   76  C  6  S   -0.126344  -0.117533  -0.057004  -0.019849   0.002044
   77  C  6  S    0.241010   0.225529   0.112096   0.037634  -0.003911
   78  C  6  X    0.030679  -0.009603  -0.131493  -0.086075   0.003545
   79  C  6  Y   -0.008881  -0.006237   0.045918   0.102440  -0.028400
   80  C  6  Z    0.000525  -0.000727  -0.002082   0.003056   0.142326
   81  C  6  S    0.226766   0.228664   0.141392   0.055242  -0.005657
   82  C  6  X    0.007574  -0.002401  -0.038000  -0.012609   0.000621
   83  C  6  Y    0.000825  -0.001911   0.013676   0.043852  -0.013455
   84  C  6  Z    0.000292  -0.000210  -0.000329   0.001668   0.064160
   85  C  6 XX    0.000906  -0.002671  -0.007401  -0.004884   0.000337
   86  C  6 YY   -0.000520   0.001160   0.002489  -0.000486  -0.000081
   87  C  6 ZZ    0.000179   0.001011   0.004223   0.005277  -0.000490
   88  C  6 XY    0.000053   0.002189   0.009173   0.007868  -0.001016
   89  C  6 XZ    0.000031  -0.000045   0.000007   0.000043   0.004797
   90  C  6 YZ   -0.000047   0.000063   0.000180  -0.000030   0.005238
   91  C  7  S    0.125710  -0.118886   0.056878  -0.020168  -0.000444
   92  C  7  S   -0.239831   0.228183  -0.111889   0.038253   0.001481
   93  C  7  X    0.031021   0.009188  -0.130585   0.086994   0.006680
   94  C  7  Y    0.008851  -0.006416  -0.045069   0.101853   0.001716
   95  C  7  Z   -0.000716  -0.000314   0.005984  -0.002642   0.140319
   96  C  7  S   -0.225330   0.230829  -0.140538   0.055998  -0.001819
   97  C  7  X    0.007539   0.002497  -0.037926   0.013164   0.005131
   98  C  7  Y   -0.001002  -0.001903  -0.013437   0.043603   0.000578
   99  C  7  Z   -0.000081  -0.000130   0.001802  -0.001034   0.063309
  100  C  7 XX   -0.000975  -0.002633   0.007340  -0.004897   0.000098
  101  C  7 YY    0.000538   0.001158  -0.002477  -0.000421   0.000915
  102  C  7 ZZ   -0.000155   0.001002  -0.004166   0.005195  -0.000839
  103  C  7 XY    0.000025  -0.002178   0.009098  -0.007920  -0.000502
  104  C  7 XZ    0.000054   0.000183  -0.000787   0.000304  -0.004702
  105  C  7 YZ   -0.000064  -0.000002  -0.000106   0.000629   0.004958
  106  H  8  S   -0.000263  -0.071909   0.000964   0.108470   0.149931
  107  H  8  S    0.000123  -0.012172   0.000528   0.060560   0.105804
  108  H  9  S   -0.001500  -0.069855  -0.000413   0.105993  -0.134114
  109  H  9  S   -0.000201  -0.011144  -0.000447   0.058779  -0.096461
  110  H 10  S    0.078861   0.077058   0.060346   0.052425   0.058496
  111  H 10  S    0.015369   0.016829   0.026112   0.032695   0.043521
  112  H 11  S    0.078923   0.077256   0.060485   0.051381  -0.077384
  113  H 11  S    0.015351   0.016782   0.026410   0.031625  -0.054489
  114  H 12  S    0.072934   0.082869   0.086058   0.025714   0.001553
  115  H 12  S    0.013271   0.020245   0.043996   0.027945   0.001157
  116  H 13  S   -0.072412   0.083651  -0.085759   0.026692   0.006021
  117  H 13  S   -0.013170   0.020383  -0.043819   0.028420   0.003048
  118  H 14  S   -0.078403   0.078279  -0.061155   0.049630  -0.068631
  119  H 14  S   -0.015306   0.017058  -0.026800   0.030462  -0.048983
  120  H 15  S   -0.078466   0.077671  -0.058951   0.054060   0.064092
  121  H 15  S   -0.015111   0.016942  -0.025452   0.033524   0.046453

                     16         17         18         19         20
                   -0.4706    -0.4598    -0.4319    -0.4261    -0.4158
                     A          A          A          A          A   
    1  O  1  S   -0.008015  -0.051386  -0.000731   0.034782  -0.026246
    2  O  1  S    0.016632   0.109950   0.001046  -0.071375   0.048756
    3  O  1  X   -0.194575   0.093187  -0.010644   0.175949  -0.000155
    4  O  1  Y   -0.005665  -0.236233  -0.014498   0.247077  -0.194632
    5  O  1  Z   -0.020604  -0.003142   0.166470   0.022801  -0.004763
    6  O  1  S    0.038376   0.213966   0.004348  -0.139700   0.132835
    7  O  1  X   -0.114830   0.052165  -0.005378   0.108894   0.004310
    8  O  1  Y    0.001654  -0.121351  -0.008348   0.138772  -0.105782
    9  O  1  Z   -0.011688  -0.001695   0.097201   0.013288  -0.001994
   10  O  1 XX   -0.003212  -0.001571  -0.000013   0.000030  -0.001952
   11  O  1 YY    0.000230  -0.016542  -0.001578   0.014960  -0.013054
   12  O  1 ZZ   -0.000306   0.001545   0.000830  -0.000892  -0.000886
   13  O  1 XY   -0.013362   0.007905  -0.000768   0.012348  -0.001146
   14  O  1 XZ   -0.000873   0.000156  -0.000173   0.000636  -0.000040
   15  O  1 YZ   -0.001503  -0.000286   0.011985   0.001621  -0.000414
   16  O  2  S   -0.008571   0.051602  -0.003399  -0.034270  -0.026580
   17  O  2  S    0.017834  -0.110429   0.006268   0.070524   0.049444
   18  O  2  X    0.193442   0.096877   0.005375   0.177522   0.000733
   19  O  2  Y   -0.008592   0.236666  -0.029971  -0.242278  -0.195870
   20  O  2  Z   -0.002312  -0.016760  -0.167495   0.019715   0.023700
   21  O  2  S    0.040677  -0.214483   0.017806   0.136838   0.134049
   22  O  2  X    0.114329   0.054471   0.002608   0.110055  -0.004041
   23  O  2  Y    0.000163   0.121715  -0.015884  -0.136167  -0.106443
   24  O  2  Z   -0.001768  -0.009644  -0.098016   0.011725   0.013513
   25  O  2 XX   -0.003292   0.001499  -0.000300  -0.000036  -0.001942
   26  O  2 YY   -0.000053   0.016589  -0.002655  -0.014608  -0.013092
   27  O  2 ZZ   -0.000134  -0.001458   0.000876   0.000947  -0.000998
   28  O  2 XY    0.013283   0.008170   0.000353   0.012457   0.001176
   29  O  2 XZ   -0.000697  -0.000269  -0.000119  -0.000608   0.000042
   30  O  2 YZ   -0.000282  -0.001346  -0.012078   0.001490   0.001674
   31  C  3  S   -0.005416   0.000239  -0.000008  -0.000158   0.034223
   32  C  3  S    0.004808  -0.000467  -0.000410   0.000272  -0.065463
   33  C  3  X    0.001612  -0.168287   0.001280  -0.014014   0.001212
   34  C  3  Y    0.256711   0.001278   0.001812   0.002333  -0.127067
   35  C  3  Z   -0.015095   0.008820  -0.003588  -0.002040  -0.013103
   36  C  3  S    0.025491  -0.001283   0.003394   0.000437  -0.125171
   37  C  3  X    0.000321  -0.099757  -0.000727   0.050540   0.001462
   38  C  3  Y    0.118706   0.000989  -0.000784   0.001473  -0.044085
   39  C  3  Z   -0.008241   0.002822  -0.002284  -0.003462  -0.007091
   40  C  3 XX   -0.004077   0.000042   0.000517  -0.000146   0.017390
   41  C  3 YY   -0.001619  -0.000097  -0.000136   0.000077  -0.008342
   42  C  3 ZZ    0.010421   0.000143  -0.000392   0.000105  -0.008681
   43  C  3 XY   -0.000013   0.003179   0.000229   0.007991   0.000017
   44  C  3 XZ   -0.000322   0.000054  -0.008819  -0.000105   0.000494
   45  C  3 YZ   -0.001872   0.000814  -0.000166   0.000340  -0.000359
   46  C  4  S   -0.006450   0.023830  -0.000069  -0.007931  -0.021517
   47  C  4  S    0.015676  -0.057262   0.000320   0.018729   0.044019
   48  C  4  X   -0.235652   0.172814  -0.012424   0.173419  -0.025129
   49  C  4  Y    0.050945   0.138787  -0.002518  -0.207372   0.199465
   50  C  4  Z   -0.022838   0.020361   0.175671   0.000359   0.012695
   51  C  4  S    0.005553  -0.049864  -0.001282   0.030741   0.085478
   52  C  4  X   -0.074494   0.035310  -0.007095   0.049166   0.005334
   53  C  4  Y    0.021756   0.020401  -0.003862   0.016389   0.048940
   54  C  4  Z   -0.009446   0.005660   0.089842   0.005700   0.005254
   55  C  4 XX   -0.003756   0.000119   0.000608  -0.010077   0.000658
   56  C  4 YY    0.002005   0.005173   0.000176   0.005481  -0.001915
   57  C  4 ZZ    0.000398   0.004254  -0.000591  -0.003719   0.001276
   58  C  4 XY    0.008995  -0.002281   0.000498  -0.002976  -0.008229
   59  C  4 XZ    0.000059  -0.000204  -0.006144  -0.000593  -0.000727
   60  C  4 YZ    0.000474   0.000029  -0.003930   0.000350  -0.000645
   61  C  5  S   -0.006416  -0.024590  -0.000471   0.008144  -0.021409
   62  C  5  S    0.015555   0.058878   0.000979  -0.019057   0.043938
   63  C  5  X    0.233508   0.178280   0.005654   0.174694   0.024550
   64  C  5  Y    0.051190  -0.138254   0.009589   0.203509   0.202018
   65  C  5  Z   -0.007341   0.003506  -0.178754  -0.003627   0.001525
   66  C  5  S    0.005763   0.051976   0.000504  -0.031808   0.084249
   67  C  5  X    0.073327   0.036345   0.002408   0.049339  -0.005028
   68  C  5  Y    0.021735  -0.019550   0.000125  -0.017394   0.048619
   69  C  5  Z   -0.001606  -0.000200  -0.090587   0.003943   0.004118
   70  C  5 XX   -0.003850  -0.000241   0.000211   0.009921   0.000733
   71  C  5 YY    0.002171  -0.005204   0.000238  -0.005297  -0.001961
   72  C  5 ZZ    0.000387  -0.004315   0.000006   0.003644   0.001377
   73  C  5 XY   -0.009010  -0.002380  -0.000225  -0.003142   0.008239
   74  C  5 XZ    0.000552   0.000080  -0.005984   0.000711   0.000685
   75  C  5 YZ   -0.000164   0.000252   0.003986   0.000543  -0.000220
   76  C  6  S    0.020497  -0.002088   0.000231  -0.005169   0.001159
   77  C  6  S   -0.039420   0.003696  -0.000375   0.011231  -0.003048
   78  C  6  X    0.107081   0.040518  -0.004632  -0.122883   0.241607
   79  C  6  Y   -0.142446   0.182261  -0.019212   0.159104   0.088063
   80  C  6  Z   -0.017267   0.017517   0.261681   0.011897   0.020786
   81  C  6  S   -0.060717  -0.001059  -0.000968  -0.020005   0.011712
   82  C  6  X    0.048169   0.028339  -0.002057  -0.077787   0.119041
   83  C  6  Y   -0.063601   0.089642  -0.008814   0.078495   0.043704
   84  C  6  Z   -0.007853   0.008931   0.126855   0.005025   0.010029
   85  C  6 XX    0.004568  -0.003936   0.000092  -0.006855  -0.003228
   86  C  6 YY    0.000901  -0.003448  -0.000945   0.002501  -0.003465
   87  C  6 ZZ   -0.007790   0.008464   0.000727   0.008171   0.003832
   88  C  6 XY   -0.005992   0.000628  -0.000671   0.005069  -0.011642
   89  C  6 XZ   -0.000299  -0.000148   0.004351  -0.000193  -0.000656
   90  C  6 YZ   -0.000258  -0.000237   0.011767   0.000273  -0.000246
   91  C  7  S    0.020603   0.002573   0.000818   0.005293   0.001203
   92  C  7  S   -0.039745  -0.004602  -0.001917  -0.011504  -0.003108
   93  C  7  X   -0.107301   0.037531  -0.020012  -0.120164  -0.241358
   94  C  7  Y   -0.139882  -0.185236  -0.016202  -0.158320   0.089269
   95  C  7  Z    0.007709   0.008745  -0.259798   0.028378   0.030784
   96  C  7  S   -0.060529  -0.000472  -0.001473   0.019726   0.011905
   97  C  7  X   -0.048636   0.027095  -0.010970  -0.076672  -0.119031
   98  C  7  Y   -0.062520  -0.091165  -0.007068  -0.078211   0.044364
   99  C  7  Z    0.002571   0.004553  -0.125834   0.014765   0.015417
  100  C  7 XX    0.004458   0.004018  -0.000009   0.006816  -0.003157
  101  C  7 YY    0.000787   0.003386  -0.001877  -0.002353  -0.003186
  102  C  7 ZZ   -0.007563  -0.008522   0.001484  -0.008235   0.003496
  103  C  7 XY    0.006034   0.000848   0.001190   0.004979   0.011542
  104  C  7 XZ   -0.000329   0.000049   0.004328  -0.000650  -0.001155
  105  C  7 YZ   -0.000786  -0.001123  -0.011507   0.000304   0.002386
  106  H  8  S    0.081876   0.007175  -0.001236   0.000894  -0.088324
  107  H  8  S    0.046709   0.005970  -0.000530   0.003091  -0.055177
  108  H  9  S    0.108618  -0.006119   0.002258   0.001186  -0.082280
  109  H  9  S    0.063885  -0.005253   0.001236  -0.001823  -0.053080
  110  H 10  S   -0.074511   0.069506   0.126625   0.071682   0.032386
  111  H 10  S   -0.042994   0.047100   0.093822   0.053601   0.018894
  112  H 11  S   -0.061013   0.061392  -0.132951   0.062997   0.022534
  113  H 11  S   -0.033151   0.041357  -0.098188   0.047035   0.011509
  114  H 12  S   -0.021764  -0.075059   0.001008   0.009315  -0.156925
  115  H 12  S   -0.004184  -0.041442   0.001185  -0.006758  -0.113502
  116  H 13  S   -0.023298   0.073721  -0.011322  -0.008291  -0.155930
  117  H 13  S   -0.005017   0.040704  -0.006624   0.007514  -0.112720
  118  H 14  S   -0.065600  -0.064648   0.128537  -0.075851   0.008079
  119  H 14  S   -0.036917  -0.043668   0.094949  -0.055901   0.001049
  120  H 15  S   -0.067834  -0.068880  -0.128860  -0.058961   0.045518
  121  H 15  S   -0.037922  -0.046074  -0.095408  -0.044466   0.028287

                     21         22         23         24         25
                   -0.3940    -0.3933    -0.3751    -0.3572    -0.3525
                     A          A          A          A          A   
    1  O  1  S    0.016979  -0.007585   0.007580   0.000879  -0.000840
    2  O  1  S   -0.026181   0.011851  -0.011283  -0.001552   0.001751
    3  O  1  X   -0.001982   0.005254  -0.120751  -0.017087  -0.007122
    4  O  1  Y    0.207950  -0.096019   0.102779  -0.009097  -0.022163
    5  O  1  Z    0.014676  -0.002346  -0.007894   0.343444   0.326727
    6  O  1  S   -0.092034   0.039872  -0.049604  -0.006008   0.005341
    7  O  1  X   -0.004733   0.003749  -0.070428  -0.010739  -0.005194
    8  O  1  Y    0.119593  -0.055334   0.054440  -0.007718  -0.013250
    9  O  1  Z    0.008617  -0.001070  -0.004955   0.226511   0.222116
   10  O  1 XX   -0.000333   0.000402  -0.000193   0.000216  -0.000245
   11  O  1 YY    0.013939  -0.006349   0.006340  -0.001371  -0.001702
   12  O  1 ZZ    0.001743  -0.000734   0.000520   0.001670   0.001751
   13  O  1 XY   -0.000312   0.000552  -0.008896  -0.001313  -0.000166
   14  O  1 XZ   -0.000506  -0.000794  -0.000451   0.000718   0.001574
   15  O  1 YZ    0.000993  -0.000139  -0.000554   0.020299   0.018355
   16  O  2  S    0.018286  -0.004773  -0.007744   0.000179   0.000579
   17  O  2  S   -0.028807   0.006525   0.011477  -0.000667  -0.002113
   18  O  2  X   -0.001222  -0.002674  -0.121214  -0.010754   0.000090
   19  O  2  Y    0.221795  -0.064631  -0.104012  -0.016135   0.024777
   20  O  2  Z   -0.006720   0.008440   0.015947  -0.311447   0.357149
   21  O  2  S   -0.097434   0.026709   0.050605   0.000291   0.000265
   22  O  2  X    0.002483  -0.002962  -0.070746  -0.007238  -0.001635
   23  O  2  Y    0.127787  -0.037216  -0.055015  -0.010359   0.016903
   24  O  2  Z   -0.003155   0.005034   0.010032  -0.204955   0.241946
   25  O  2 XX   -0.000441   0.000207   0.000208   0.000132  -0.000174
[...]
             64  C  5  Y      0.56176     0.49590
             65  C  5  Z      0.66740     0.58284
             66  C  5  S      0.40691     0.28011
             67  C  5  X      0.14282     0.32039
             68  C  5  Y      0.16652     0.30043
             69  C  5  Z      0.10749     0.29249
             70  C  5 XX     -0.00454     0.15586
             71  C  5 YY     -0.01013     0.14419
             72  C  5 ZZ      0.00331     0.17806
             73  C  5 XY      0.01679     0.03808
             74  C  5 XZ      0.02130     0.04529
             75  C  5 YZ      0.01543     0.03189
             76  C  6  S      1.99189     1.97869
             77  C  6  S      0.67849     0.36645
             78  C  6  X      0.69383     0.62647
             79  C  6  Y      0.72830     0.65332
             80  C  6  Z      0.73029     0.65451
             81  C  6  S      0.65605     0.33254
             82  C  6  X      0.28486     0.40534
             83  C  6  Y      0.36420     0.47443
             84  C  6  Z      0.37607     0.48821
             85  C  6 XX     -0.00177     0.14965
             86  C  6 YY      0.00683     0.15685
             87  C  6 ZZ      0.00690     0.15567
             88  C  6 XY      0.00491     0.00905
             89  C  6 XZ      0.00680     0.01359
             90  C  6 YZ      0.00341     0.00591
             91  C  7  S      1.99190     1.97870
             92  C  7  S      0.67846     0.36666
             93  C  7  X      0.71563     0.64334
             94  C  7  Y      0.72573     0.65016
             95  C  7  Z      0.71148     0.64111
             96  C  7  S      0.65311     0.33232
             97  C  7  X      0.33098     0.45010
             98  C  7  Y      0.37260     0.48415
             99  C  7  Z      0.33152     0.43641
            100  C  7 XX      0.00149     0.15142
            101  C  7 YY      0.00744     0.15700
            102  C  7 ZZ      0.00130     0.15223
            103  C  7 XY      0.00644     0.01212
            104  C  7 XZ      0.00876     0.01522
            105  C  7 YZ      0.00177     0.00324
            106  H  8  S      0.51654     0.47744
            107  H  8  S      0.28088     0.33380
            108  H  9  S      0.51558     0.47652
            109  H  9  S      0.27932     0.33379
            110  H 10  S      0.51522     0.47395
            111  H 10  S      0.28736     0.34001
            112  H 11  S      0.51668     0.47639
            113  H 11  S      0.29069     0.34182
            114  H 12  S      0.52079     0.47840
            115  H 12  S      0.29680     0.34500
            116  H 13  S      0.52149     0.48022
            117  H 13  S      0.30076     0.34722
            118  H 14  S      0.51582     0.47438
            119  H 14  S      0.29186     0.34297
            120  H 15  S      0.51630     0.47580
            121  H 15  S      0.29393     0.34352

          ----- MULLIKEN ATOMIC OVERLAP POPULATIONS -----
          (OFF-DIAGONAL ELEMENTS NEED TO BE MULTIPLIED BY 2)

             1           2           3           4           5

    1    8.0349909
    2   -0.0009898   8.0436385
    3   -0.1040053  -0.0774589   5.6644405
    4    0.5908069  -0.0009503   0.2625984   4.4353062
    5    0.0162401   0.5879804   0.2666794  -0.0104947   4.4240800
    6   -0.0746724  -0.0000844  -0.1284872   0.3575250   0.0043615
    7   -0.0039834  -0.0815046  -0.1203842  -0.0005292   0.3372946
    8    0.0015514   0.0048560   0.3335902  -0.0161033  -0.0216449
    9    0.0009698   0.0023303   0.3313205  -0.0175635  -0.0193507
   10    0.0010094   0.0000104   0.0027029  -0.0217211  -0.0001758
   11    0.0015745  -0.0000005   0.0038535  -0.0231414  -0.0000126
   12    0.0046498   0.0000009   0.0061218  -0.0211297  -0.0001116
   13    0.0000654   0.0044131   0.0059300  -0.0000443  -0.0219275
   14    0.0080240   0.0015874  -0.0006239   0.0019124  -0.0201792
   15    0.0001454   0.0012352   0.0012237   0.0001680  -0.0180321

             6           7           8           9          10

    6    5.3100047
    7   -0.0002256   5.3522736
    8    0.0002171   0.0053831   0.5107778
    9   -0.0007738   0.0041585  -0.0215309   0.5142068
   10    0.3563743  -0.0000035   0.0008263   0.0000254   0.5078092
   11    0.3558131   0.0000202  -0.0002545   0.0008385  -0.0239536
   12    0.3507789   0.0000084   0.0000067  -0.0000982  -0.0203166
   13    0.0000042   0.3514421  -0.0001597  -0.0000858   0.0000000
   14    0.0002162   0.3461750   0.0000784  -0.0007320  -0.0000010
   15    0.0000130   0.3484927  -0.0001727   0.0011896  -0.0000000

            11          12          13          14          15

   11    0.5139436
   12   -0.0212839   0.5189704
   13   -0.0000001  -0.0000001   0.5236748
   14   -0.0000223  -0.0000058  -0.0202876   0.5139897
   15   -0.0000039  -0.0000002  -0.0207789  -0.0224497   0.5191985

          TOTAL MULLIKEN AND LOWDIN ATOMIC POPULATIONS
       ATOM         MULL.POP.    CHARGE          LOW.POP.     CHARGE
    1 O             8.476377   -0.476377         8.272862   -0.272862
    2 O             8.485064   -0.485064         8.275396   -0.275396
    3 C             6.447501   -0.447501         6.342360   -0.342360
    4 C             5.536639    0.463361         5.811495    0.188505
    5 C             5.524707    0.475293         5.811821    0.188179
    6 C             6.531064   -0.531064         6.470677   -0.470677
    7 C             6.538618   -0.538618         6.474167   -0.474167
    8 H             0.797421    0.202579         0.811240    0.188760
    9 H             0.794905    0.205095         0.810315    0.189685
   10 H             0.802586    0.197414         0.813960    0.186040
   11 H             0.807371    0.192629         0.818204    0.181796
   12 H             0.817591    0.182409         0.823401    0.176599
   13 H             0.822246    0.177754         0.827440    0.172560
   14 H             0.807682    0.192318         0.817349    0.182651
   15 H             0.810229    0.189771         0.819315    0.180685

          -------------------------------
          BOND ORDER AND VALENCE ANALYSIS     BOND ORDER THRESHOLD=0.050
          -------------------------------

                   BOND                       BOND                       BOND
  ATOM PAIR DIST  ORDER      ATOM PAIR DIST  ORDER      ATOM PAIR DIST  ORDER
    1   4  1.220  1.895        2   5  1.220  1.900        3   4  1.533  0.926
    3   5  1.525  0.928        3   8  1.096  0.910        3   9  1.099  0.902
    4   6  1.512  0.986        5   7  1.510  0.987        6  10  1.097  0.920
    6  11  1.097  0.924        6  12  1.092  0.937        7  13  1.092  0.940
    7  14  1.096  0.917        7  15  1.098  0.920

                       TOTAL       BONDED        FREE
      ATOM            VALENCE     VALENCE     VALENCE
    1 O                 2.017       2.017      -0.000
    2 O                 2.006       2.006       0.000
    3 C                 3.667       3.667       0.000
    4 C                 3.834       3.834      -0.000
    5 C                 3.838       3.838      -0.000
    6 C                 3.768       3.768       0.000
    7 C                 3.766       3.766       0.000
    8 H                 0.927       0.927      -0.000
    9 H                 0.919       0.919      -0.000
   10 H                 0.923       0.923      -0.000
   11 H                 0.925       0.925      -0.000
   12 H                 0.936       0.936       0.000
   13 H                 0.938       0.938       0.000
   14 H                 0.934       0.934      -0.000
   15 H                 0.925       0.925      -0.000

    **** A SOLVENT MODEL IS IN USE IN THIS RUN ****
 ELECTRICAL PROPERTIES (MOMENTS, DENSITY, FIELD/GRADIENT, AND/OR POTENTIAL)
 ARE COMPUTED USING THE SOLVATED SYSTEM'S DENSITY MATRIX, BUT
 ONLY WITH AO INTEGRAL CONTRIBUTIONS FROM THE QUANTUM SOLUTE.
 THE ONE EXCEPTION IS THE DIPOLE, WHICH IS ALSO PRINTED FOR THE TOTAL SYSTEM.

          ----------------------------
          SOLUTE ELECTROSTATIC MOMENTS
          ----------------------------

 POINT   1           X           Y           Z (BOHR)    CHARGE
                 0.304636    0.367257    0.255092        0.00 (A.U.)
         DX          DY          DZ         /D/  (DEBYE)
    -2.003353    4.837210   -0.785891    5.294303

          ----------------------------
          SYSTEM ELECTROSTATIC MOMENTS
          ----------------------------

 POINT   1           X           Y           Z (BOHR)    CHARGE
                 0.304636    0.367257    0.255092        0.00 (A.U.)
         DX          DY          DZ         /D/  (DEBYE)
    -2.003353    4.837210   -0.785891    5.294303
 INCLUDING PCM SURFACE CHARGES, TOTAL CHARGE=   -0.007260, AND TOTAL DIPOLE IS
         DX          DY          DZ         /D/  (DEBYE)
    -0.029120    0.127015    0.034047    0.134685
 ...... END OF PROPERTY EVALUATION ......
 STEP CPU TIME =     0.04 TOTAL CPU TIME =       2143.2 (     35.7 MIN)
 TOTAL WALL CLOCK TIME=       2155.5 SECONDS, CPU UTILIZATION IS    99.43%
  $VIB   
          IVIB=   0 IATOM=   0 ICOORD=   0 E=     -345.6045440019
 -1.415727476E-05 5.138521226E-05-6.177742054E-05-4.844333426E-05-5.117984526E-05
 -1.843781787E-05 1.188076078E-04 5.952875240E-05-5.247779637E-05-3.247639672E-05
 -1.983860198E-04 3.201719160E-06 8.596150666E-05 4.587168689E-05-9.105436406E-05
 -6.911706962E-05 5.819048591E-06 2.636107851E-05 4.593634901E-05 1.521690951E-04
  8.884171885E-05-2.485167857E-05 5.451502474E-06 1.280036300E-04 2.754918118E-05
  2.191564263E-05 1.961860337E-05-2.861298856E-05 2.022820375E-06 4.039677382E-05
  1.090401420E-05 5.314349006E-05-4.570035890E-05-3.416557279E-06-1.541890144E-05
 -4.098998582E-05-1.476947270E-06-1.145831725E-05 2.197910224E-05-2.881636026E-05
 -6.541798939E-05 5.425678583E-05-3.779005154E-05-5.544617768E-05-7.222166824E-05
 -2.003352522E+00 4.837209619E+00-7.858908695E-01
 ......END OF GEOMETRY SEARCH......
 STEP CPU TIME =     0.00 TOTAL CPU TIME =       2143.2 (     35.7 MIN)
 TOTAL WALL CLOCK TIME=       2155.5 SECONDS, CPU UTILIZATION IS    99.43%

             ----------------------------------------------
             -------   RESULTS OF PCM CALCULATION   -------
             ----------------------------------------------

 FREE ENERGY IN SOLVENT = <PSI| H(0)+V/2 |PSI>       =     -345.6045440019 A.U.
 INTERNAL ENERGY IN SOLVENT = <PSI| H(0) |PSI>       =     -345.5901821572 A.U.
 DELTA INTERNAL ENERGY =  <D-PSI| H(0) |D-PSI>       =        0.0000000000 A.U.
 ELECTROSTATIC INTERACTION                           =       -0.0143618447 A.U.
 PIEROTTI CAVITATION ENERGY                          =        0.0000000000 A.U.
 DISPERSION FREE ENERGY                              =        0.0000000000 A.U.
 REPULSION FREE ENERGY                               =        0.0000000000 A.U.
 TOTAL INTERACTION (DELTA + ES + CAV + DISP + REP)   =       -0.0143618447 A.U.
 TOTAL FREE ENERGY IN SOLVENT                        =     -345.6045440019 A.U.

 FREE ENERGY IN SOLVENT       =     -216870.15 KCAL/MOL
 INTERNAL ENERGY IN SOLVENT   =     -216861.14 KCAL/MOL
 DELTA INTERNAL ENERGY        =           0.00 KCAL/MOL
 ELECTROSTATIC INTERACTION    =          -9.01 KCAL/MOL
 PIEROTTI CAVITATION ENERGY   =           0.00 KCAL/MOL
 DISPERSION FREE ENERGY       =           0.00 KCAL/MOL
 REPULSION FREE ENERGY        =           0.00 KCAL/MOL
 TOTAL INTERACTION            =          -9.01 KCAL/MOL
 TOTAL FREE ENERGY IN SOLVENT =     -216870.15 KCAL/MOL

 -INTERNAL ENERGY IN SOLVENT-
    OMITS ES,CAV,DISP,REP (USES SOLVATED ORBITALS IN THE GAS PHASE HAMILTONIAN)
 -FREE ENERGY IN SOLVENT-
    INCLUDES ES+DISP+REP WHICH ARE IN THE SELF-CONSISTENT WAVEFUNCTION.
 -TOTAL FREE ENERGY IN SOLVENT-
    INCLUDES ES+DISP+REP+CAV, MEANING CAVITATION IS NOT IN THE SCF ENERGY.

 .... DONE PRINTING PCM SOLVENT SUMMARY ....
 STEP CPU TIME =     0.00 TOTAL CPU TIME =       2143.2 (     35.7 MIN)
 TOTAL WALL CLOCK TIME=       2155.5 SECONDS, CPU UTILIZATION IS    99.43%
               1302777  WORDS OF DYNAMIC MEMORY USED
 EXECUTION OF GAMESS TERMINATED NORMALLY Thu Apr 30 08:11:54 2026
 DDI: 263640 bytes (0.3 MB / 0 MWords) used by master data server.

 ----------------------------------------
 CPU timing information for all processes
 ========================================
 0: 2138.191 + 5.15 = 2143.206
 ----------------------------------------
 ddikick.x: exited gracefully.
----- accounting info -----
Files used on the master node chemcompute-node-0.novalocal were:
-rw-r--r--. 1 chemcomp chemcomp     1282 Apr 30 07:35 /scratch/1118338/1594900.F05
-rw-rw-r--. 1 chemcomp chemcomp 58982400 Apr 30 08:11 /scratch/1118338/1594900.F10
-rw-rw-r--. 1 chemcomp chemcomp  7462424 Apr 30 08:11 /scratch/1118338/1594900.F22
-rw-rw-r--. 1 chemcomp chemcomp        8 Apr 30 08:11 /scratch/1118338/1594900.F26
-rw-rw-r--. 1 chemcomp chemcomp        0 Apr 30 07:35 /scratch/1118338/1594900.F27
Thu Apr 30 08:11:57 UTC 2026
0.088u 0.036s 35:58.98 0.0%	0+0k 8+208io 0pf+0w
Finishing Up...
Wrote IR file to: Gamess.ir
vibramans not found, parsing from GAMESS output
Wrote Raman file to: Gamess.raman
Wrote Thermodynamics file to: Gamess.thermo
Wrote UV-Vis file to: Gamess.uvvis
Wrote Electronic Energy file to: Gamess.energy
Wrote Geometry Optimization file to: Gamess.molden
Wrote Atomic Charges file to: Gamess.charges
Wrote all Results to: Gamess.cclib
reading wave-function from mo.molden
Loading data from molden type file mo.molden

Converting the regular grid to a vector grid containing 2.11e+05 grid points...

Starting the calculation of the molecular orbitals...
The grid has been separated into 22 slices each having 1.00e+04 grid points.
The calculation will be carried out using only one process.

	The number of subprocesses can be changed with -p


There are 121 contracted Cartesian AOs and 37 MOs to be calculated.
	Finished 10 % (4 slices in 0.390 s)
	Finished 20 % (2 slices in 0.176 s)
	Finished 30 % (2 slices in 0.173 s)
	Finished 40 % (2 slices in 0.171 s)
	Finished 50 % (2 slices in 0.170 s)
	Finished 60 % (3 slices in 0.258 s)
	Finished 70 % (2 slices in 0.175 s)
	Finished 80 % (2 slices in 0.181 s)
	Finished 90 % (2 slices in 0.184 s)
Converting the output from a vector grid to a regular grid...

Norm of the MOs:
	1.027553	MO 1.A (Occ = 2.00, E = -19.1502 E_h)
	0.773644	MO 2.A (Occ = 2.00, E = -19.1440 E_h)
	1.028061	MO 3.A (Occ = 2.00, E = -10.2918 E_h)
	0.983473	MO 4.A (Occ = 2.00, E = -10.2835 E_h)
	0.962655	MO 5.A (Occ = 2.00, E = -10.1984 E_h)
	0.920439	MO 6.A (Occ = 2.00, E = -10.1868 E_h)
	0.979607	MO 7.A (Occ = 2.00, E = -10.1825 E_h)
	0.999133	MO 8.A (Occ = 2.00, E = -1.0508 E_h)
	0.993463	MO 9.A (Occ = 2.00, E = -1.0406 E_h)
	0.998532	MO 10.A (Occ = 2.00, E = -0.7866 E_h)
	0.997994	MO 11.A (Occ = 2.00, E = -0.7456 E_h)
	0.998270	MO 12.A (Occ = 2.00, E = -0.7072 E_h)
	0.999587	MO 13.A (Occ = 2.00, E = -0.5630 E_h)
	0.999384	MO 14.A (Occ = 2.00, E = -0.5175 E_h)
	0.999979	MO 15.A (Occ = 2.00, E = -0.4761 E_h)
	0.999969	MO 16.A (Occ = 2.00, E = -0.4740 E_h)
	0.998652	MO 17.A (Occ = 2.00, E = -0.4640 E_h)
	0.999491	MO 18.A (Occ = 2.00, E = -0.4331 E_h)
	1.000332	MO 19.A (Occ = 2.00, E = -0.4276 E_h)
	1.000070	MO 20.A (Occ = 2.00, E = -0.4218 E_h)
	0.999688	MO 21.A (Occ = 2.00, E = -0.3944 E_h)
	0.999945	MO 22.A (Occ = 2.00, E = -0.3893 E_h)
	0.999959	MO 23.A (Occ = 2.00, E = -0.3751 E_h)
	0.999977	MO 24.A (Occ = 2.00, E = -0.3595 E_h)
	0.999975	MO 25.A (Occ = 2.00, E = -0.3505 E_h)
	1.000654	MO 26.A (Occ = 2.00, E = -0.2625 E_h)
	1.000168	MO 27.A (Occ = 2.00, E = -0.2494 E_h)
	0.999896	MO 28.A (Occ = 0.00, E = -0.0220 E_h)
	1.000016	MO 29.A (Occ = 0.00, E = -0.0189 E_h)
	0.999222	MO 30.A (Occ = 0.00, E = +0.0963 E_h)
	0.999558	MO 31.A (Occ = 0.00, E = +0.1277 E_h)
	0.999531	MO 32.A (Occ = 0.00, E = +0.1480 E_h)
	0.999809	MO 33.A (Occ = 0.00, E = +0.1492 E_h)
	0.999927	MO 34.A (Occ = 0.00, E = +0.1678 E_h)
	0.999929	MO 35.A (Occ = 0.00, E = +0.1724 E_h)
	0.999648	MO 36.A (Occ = 0.00, E = +0.1811 E_h)
	0.999903	MO 37.A (Occ = 0.00, E = +0.1868 E_h)
[done] wrote 38 entries to mo_cutoffs.json
total density…
JmolData using command options ["-n", "-s", "rho.spt"]
{noDisplay=true, noConsole=true, exit=true, headlessMaxTimeMs=60000, JmolData=true, isDataOnly=true}
Jmol version 16.3.31  2025-07-21 14:08
Operating headless display=null nographicsallowed=true
Executing script from file: rho.spt
jmolapp evalfilearsgs  rho.spt
Executing script: ;exitJmol;
FileManager opening file /data/slurm/159/1594900/rho.spt

FileManager.getAtomSetCollectionFromFile(/data/slurm/159/1594900/Gamess.stdout)
FileManager opening file /data/slurm/159/1594900/Gamess.stdout
The Resolver thinks GamessUS
          *         GAMESS VERSION = 30 JUN 2019 (R1)          *

          1 ELECTRON INTEGRALS
 ...... END OF ONE-ELECTRON INTEGRALS ......
121 molecular orbitals read in model 2
Molecular dipole for model 2 = {-0.0052589998, 6.808961, 0.022188999}
Molecular dipole for model 2 = {-0.0052589998, 6.808961, 0.022188999}
37 molecular orbitals read in model 55
Molecular dipole for model 55 = {-2.003353, 4.83721, -0.785891}
Molecular dipole for model 55 = {-2.003353, 4.83721, -0.785891}
Time for openFile(/data/slurm/159/1594900/Gamess.stdout): 253 ms
reading 825 atoms
ModelSet: haveSymmetry:false haveUnitcells:false haveFractionalCoord:false
55 models in this collection. Use getProperty "modelInfo" or getProperty "auxiliaryInfo" to inspect them.
Default Van der Waals type for model set to Babel
825 atoms created
ModelSet: autobonding; use  autobond=false  to not generate bonds automatically
Time for creating model: 39 ms
55 models
121 molecular orbitals in model 1.2
37 molecular orbitals in model 1.55

MO 29
Molecular orbital #1/121 6-31G(d) B3LYP RHF OPTIMIZE
15 atoms will be used in the surface calculation
Maximum number of voxels for index=0 exceeded (122) -- set to 80
Maximum number of voxels for index=1 exceeded (85) -- set to 80
generating isosurface data for MO using cutoff 1.8271155E-4
QuantumCalculation:
 origin = [-6.0590696, -4.28231, -3.54604]
 range (Ang) = [12.273721, 8.537153, 7.1919246]
 steps (Bohr)= [0.2899231, 0.20165998, 0.19141825]
 origin(Bohr)= [-11.449922, -8.09235, -6.7010093]
 steps = [0.2899231, 0.20165998, 0.19141825]
 counts= 80 80 71
calculation type: 6-31G(d) B3LYP RHF OPTIMIZE OK.
boundbox corners {-4.3061566 -2.5047894 -1.809494} {4.3084855 2.431792 1.8436191}
rho created  with cutoff=1.8271155E-4; isosurface count: 1
isosurface full data range -1.0 to 1.0 with color scheme spanning -1.0 to 1.0
#created by Jmol Version 16.3.31  2025-07-21 14:08 on Thu Apr 30 08:12:03 UTC 2026
MO
calculation type: 6-31G(d) B3LYP RHF OPTIMIZE

isosurface resolution for axis 1 set to 6.517991 points/Angstrom; 80 voxels
isosurface resolution for axis 2 set to 9.370804 points/Angstrom; 80 voxels
isosurface resolution for axis 3 set to 9.872184 points/Angstrom; 71 voxels
454400 voxels total

1 id:rho; model:1.2; vertices:11666; polygons:23328; visible:true; dataRange:[-1.0, 1.0, -1.0, 1.0]; title:isosurface rho cutoff 0.013517083662415552 mo density;

<jvxlSurfaceInfo 
  isModelConnected="true" 
  cutoff="1.8271155E-4" 
  isCutoffAbsolute="true" 
  pointsPerAngstrom="6.517991" 
  nBytesData="41202" 
  isXLowToHigh="false" 
  nSurfaceInts="3760" 
  nBytesUncompressedEdgeData="11665" 
  nBytesUncompressedColorData="25600" 
  precisionColor="true" 
  bicolorMap="true" 
  colorNegative="[xff0000]" 
  colorPositive="[x0000ff]" 
  color="[xffa500]" 
  translucency="0.0" 
  rendering="fill noMesh noDots notFrontOnly frontlit" 
  slabbable="true" 
  xyzMin="{-4.3061566 -2.5047894 -1.809494}" 
  xyzMax="{4.3084855 2.431792 1.8436191}" 
  approximateCompressionRatio="not calculated" 
  jmolVersion="Jmol 16.3.31  2025-07-21 14:08">
</jvxlSurfaceInfo>


chemcompute.org
{'UTCtimestamp': '2026-04-30T08:12:14.994740', 'cluster': 'jetstream2', 'clusterJobNumber': '1118338', 'status': 'COMPLETE', 'nodeList': 'chemcompute-node-0'}
1118338
