----- GAMESS execution script 'rungms' -----
This job is running on host chemcompute-node-0.novalocal
under operating system Linux at Thu Apr 30 06:29:50 UTC 2026
SLURM has assigned the following compute nodes to this run:
Available scratch disk space (Kbyte units) at beginning of the job is
Filesystem     1K-blocks     Used Available Use% Mounted on
/dev/sda4       61775852 12598152  49177700  21% /
GAMESS temporary binary files will be written to /scratch/1118315
GAMESS supplementary output files will be written to /data/slurm/159/1594877
Copying input file 1594877.inp to your run's scratch directory...
The generated host list is
chemcompute-node-0.novalocal

 Distributed Data Interface kickoff program.
 Initiating 1 compute processes on 1 nodes to run the following command:
 /data/gamess-2019R1-avx2-ddi/gamess.00.x 1594877 

          ******************************************************
          *         GAMESS VERSION = 30 JUN 2019 (R1)          *
          *             FROM IOWA STATE UNIVERSITY             *
          * M.W.SCHMIDT, K.K.BALDRIDGE, J.A.BOATZ, S.T.ELBERT, *
          *   M.S.GORDON, J.H.JENSEN, S.KOSEKI, N.MATSUNAGA,   *
          *          K.A.NGUYEN, S.J.SU, T.L.WINDUS,           *
          *       TOGETHER WITH M.DUPUIS, J.A.MONTGOMERY       *
          *         J.COMPUT.CHEM.  14, 1347-1363(1993)        *
          **************** 64 BIT INTEL VERSION ****************

  SINCE 1993, STUDENTS AND POSTDOCS WORKING AT IOWA STATE UNIVERSITY
  AND ALSO IN THEIR VARIOUS JOBS AFTER LEAVING ISU HAVE MADE IMPORTANT
  CONTRIBUTIONS TO THE CODE:
     IVANA ADAMOVIC, CHRISTINE AIKENS, YURI ALEXEEV, POOJA ARORA,
     ANDREY ASADCHEV, ROB BELL, PRADIPTA BANDYOPADHYAY, JONATHAN BENTZ,
     COLLEEN BERTONI, BRETT BODE, KURT BRORSEN, CALEB CARLIN, GALINA CHABAN,
     WEI CHEN, CHEOL HO CHOI, PAUL DAY, ALBERT DEFUSCO, NUWAN DESILVA,
     TIM DUDLEY, DMITRI FEDOROV, ALEX FINDLATER, GRAHAM FLETCHER, 
     MARK FREITAG, KURT GLAESEMANN, ANASTASIA GUNINA,
     DAN KEMP, GRANT MERRILL, NORIYUKI MINEZAWA, JONATHAN MULLIN,
     TAKESHI NAGATA, SEAN NEDD, HEATHER NETZLOFF, BOSILJKA NJEGIC, RYAN OLSON,
     MIKE PAK, BUU PHAM,
     SPENCER PRUITT, LUKE ROSKOP, JIM SHOEMAKER, LYUDMILA SLIPCHENKO,
     TONY SMITH, SAROM SOK LEANG, JIE SONG, TETSUYA TAKETSUGU, SIMON WEBB,
     PENG XU, SOOHAENG YOO, FEDERICO ZAHARIEV

  ADDITIONAL CODE HAS BEEN PROVIDED BY COLLABORATORS IN OTHER GROUPS:
     IOWA STATE UNIVERSITY:
          JOE IVANIC, AARON WEST, LAIMUTIS BYTAUTAS, KLAUS RUEDENBERG
     UNIVERSITY OF TOKYO: KIMIHIKO HIRAO, TAKAHITO NAKAJIMA,
          TAKAO TSUNEDA, MUNEAKI KAMIYA, SUSUMU YANAGISAWA,
          KIYOSHI YAGI, MAHITO CHIBA, SEIKEN TOKURA, NAOAKI KAWAKAMI
     UNIVERSITY OF AARHUS: FRANK JENSEN
     UNIVERSITY OF IOWA: VISVALDAS KAIRYS, HUI LI
     NATIONAL INST. OF STANDARDS AND TECHNOLOGY: WALT STEVENS, DAVID GARMER
     UNIVERSITY OF PISA: BENEDETTA MENNUCCI, JACOPO TOMASI
     UNIVERSITY OF MEMPHIS: HENRY KURTZ, PRAKASHAN KORAMBATH
     UNIVERSITY OF ALBERTA: TOBY ZENG, MARIUSZ KLOBUKOWSKI
     UNIVERSITY OF NEW ENGLAND: MARK SPACKMAN
     MIE UNIVERSITY: HIROAKI UMEDA
     NAT. INST. OF ADVANCED INDUSTRIAL SCIENCE AND TECHNOLOGY: KAZUO KITAURA
     MICHIGAN STATE UNIVERSITY:
          KAROL KOWALSKI, MARTA WLOCH, JEFFREY GOUR, JESSE LUTZ,
          WEI LI, JUN SHEN, J. EMILIANO DEUSTUA, PIOTR PIECUCH
     UNIVERSITY OF MINNESOTA:
          YINAN SHU
     UNIVERSITY OF SILESIA: MONIKA MUSIAL, STANISLAW KUCHARSKI
     FACULTES UNIVERSITAIRES NOTRE-DAME DE LA PAIX:
          OLIVIER QUINET, BENOIT CHAMPAGNE
     UNIVERSITY OF CALIFORNIA - SANTA BARBARA: BERNARD KIRTMAN
     INSTITUTE FOR MOLECULAR SCIENCE:
          KAZUYA ISHIMURA, MICHIO KATOUDA, AND SHIGERU NAGASE
     UNIVERSITY OF NOTRE DAME: ANNA POMOGAEVA, DAN CHIPMAN
     KYUSHU UNIVERSITY:
          HARUYUKI NAKANO,
          FENG LONG GU, JACEK KORCHOWIEC, MARCIN MAKOWSKI, AND YURIKO AOKI,
          HIROTOSHI MORI AND EISAKU MIYOSHI
     PENNSYLVANIA STATE UNIVERSITY:
          TZVETELIN IORDANOV, CHET SWALINA, JONATHAN SKONE,
          SHARON HAMMES-SCHIFFER
     WASEDA UNIVERSITY:
          MASATO KOBAYASHI, TOMOKO AKAMA, TSUGUKI TOUMA,
          TAKESHI YOSHIKAWA, YASUHIRO IKABATA, JUNJI SEINO,
          YUYA NAKAJIMA, HIROMI NAKAI
     NANJING UNIVERSITY: SHUHUA LI
     UNIVERSITY OF NEBRASKA:
          PEIFENG SU, DEJUN SI, NANDUN THELLAMUREGE, YALI WANG, HUI LI
     UNIVERSITY OF ZURICH: ROBERTO PEVERATI, KIM BALDRIDGE
     N. COPERNICUS UNIVERSITY AND JACKSON STATE UNIVERSITY:
          MARIA BARYSZ
     UNIVERSITY OF COPENHAGEN: Jimmy Kromann, CASPER STEINMANN
     TOKYO INSTITUTE OF TECHNOLOGY: HIROYA NAKATA
     NAGOYA UNIVERSITY: YOSHIO NISHIMOTO, STEPHAN IRLE
     MOSCOW STATE UNIVERSITY: VLADIMIR MIRONOV
     A.N.NESMEYANOV INSTITUTE OF ORGANOELEMENT COMPOUNDS OF RUSSIAN ACADEMY OF SCIENCES:
          IGOR S. GERASIMOV

 EXECUTION OF GAMESS BEGUN Thu Apr 30 06:29:50 2026

            ECHO OF THE FIRST FEW INPUT CARDS -
 INPUT CARD>!                                                                               
 INPUT CARD>!   GAMESS Calculation input file                                               
 INPUT CARD>!                                                                               
 INPUT CARD>!                                                                               
 INPUT CARD> $CONTRL SCFTYP=RHF MAXIT=200 RUNTYP=OPTIMIZE                                   
 INPUT CARD>         COORD=UNIQUE MULT=1                                                    
 INPUT CARD>         ICHARG=0                                                               
 INPUT CARD>         MOLPLT=.FALSE. PLTORB=.FALSE.  $END                                    
 INPUT CARD> $SYSTEM TIMLIM=2879 MWORDS=250  $END                                           
 INPUT CARD>                                                                                
 INPUT CARD> $STATPT OPTTOL=0.0005 NSTEP=999 $END                                           
 INPUT CARD> $STATPT IHREP=0  $END                                                          
 INPUT CARD>                                                                                
 INPUT CARD> $BASIS  GBASIS=N31 NGAUSS=6                                                    
 INPUT CARD>         NDFUNC=1   NPFUNC=0  $END                                              
 INPUT CARD>                                                                                
 INPUT CARD> $SCF    DIRSCF=.T. $END                                                        
 INPUT CARD> $GUESS  GUESS=HUCKEL  $END                                                     
 INPUT CARD>                                                                                
 INPUT CARD> $DATA                                                                          
 INPUT CARD>                                                                                
 INPUT CARD>  C1                                                                            
 INPUT CARD>O     8.0    -2.35812    -0.90982     0.00773                                   
 INPUT CARD>O     8.0     1.36340     1.21121     0.01660                                   
 INPUT CARD>C     6.0    -1.20344    -0.13978    -0.00212                                   
 INPUT CARD>C     6.0    -0.00808    -0.75206     0.00011                                   
 INPUT CARD>C     6.0     1.29544    -0.01364    -0.00556                                   
 INPUT CARD>C     6.0    -1.39906     1.35509    -0.01452                                   
 INPUT CARD>C     6.0     2.54657    -0.84564    -0.00418                                   
 INPUT CARD>H     1.0     0.04126    -1.83728     0.00968                                   
 INPUT CARD>H     1.0    -0.97323     1.80754     0.88458                                   
 INPUT CARD>H     1.0    -2.45500     1.62944    -0.03766                                   
 INPUT CARD>H     1.0    -0.93692     1.79972    -0.90356                                   
 INPUT CARD>H     1.0     2.36492    -1.83364    -0.44451                                   
 INPUT CARD>H     1.0     3.31108    -0.34818    -0.61186                                   
 INPUT CARD>H     1.0     2.90596    -0.96177     1.01896                                   
 INPUT CARD>H     1.0    -3.13353    -0.32346     0.01108                                   
 INPUT CARD> $END                                                                           
 INPUT CARD>                                                                                
 INPUT CARD>                                                                                
 INPUT CARD>! Customizations after this line are persisted when using Do More Calculations  
  250000000 WORDS OF MEMORY AVAILABLE

     BASIS OPTIONS
     -------------
     GBASIS=N31          IGAUSS=       6      POLAR=POPN31  
     NDFUNC=       1     NFFUNC=       0     DIFFSP=       F
     NPFUNC=       0      DIFFS=       F     BASNAM=        


     RUN TITLE
     ---------
                                                                                 

 THE POINT GROUP OF THE MOLECULE IS C1      
 THE ORDER OF THE PRINCIPAL AXIS IS     0

 ATOM      ATOMIC                      COORDINATES (BOHR)
           CHARGE         X                   Y                   Z
 O           8.0    -4.4562006462       -1.7193104981        0.0146075819
 O           8.0     2.5764524117        2.2888550136        0.0313694514
 C           6.0    -2.2741718427       -0.2641458986       -0.0040062191
 C           6.0    -0.0152689860       -1.4211873263        0.0002078699
 C           6.0     2.4480266335       -0.0257758625       -0.0105068765
 C           6.0    -2.6438400404        2.5607487887       -0.0274388213
 C           6.0     4.8123195086       -1.5980278843       -0.0078990546
 H           1.0     0.0779700943       -3.4719557627        0.0182925476
 H           1.0    -1.8391380230        3.4157553118        1.6716138142
 H           1.0    -4.6392772999        3.0791951134       -0.0711670807
 H           1.0    -1.7705220724        3.4009776546       -1.7074808135
 H           1.0     4.4690507829       -3.4650771601       -0.8400020988
 H           1.0     6.2570339234       -0.6579647944       -1.1562477428
 H           1.0     5.4914681313       -1.8174817632        1.9255551924
 H           1.0    -5.9215130743       -0.6112507680        0.0209381639

          INTERNUCLEAR DISTANCES (ANGS.)
          ------------------------------

                1 O          2 O          3 C          4 C          5 C     

   1 O       0.0000000    4.2835217    1.3879281 *  2.3553416 *  3.7618899  
   2 O       4.2835217    0.0000000    2.9007227 *  2.3949235 *  1.2269340 *
   3 C       1.3879281 *  2.9007227 *  0.0000000    1.3430478 *  2.5020640 *
   4 C       2.3553416 *  2.3949235 *  1.3430478 *  0.0000000    1.4981524 *
   5 C       3.7618899    1.2269340 *  2.5020640 *  1.4981524 *  0.0000000  
   6 C       2.4596968 *  2.7663794 *  1.5076662 *  2.5249001 *  3.0222231  
   7 C       4.9051244    2.3729633 *  3.8158639    2.5563670 *  1.5025153 *
   8 H       2.5723939 *  3.3228592    2.1049759 *  1.0863832 *  2.2133374 *
   9 H       3.1734574    2.5629745 *  2.1520429 *  2.8749528 *  3.0423526  
  10 H       2.5415128 *  3.8416193    2.1674420 *  3.4147308    4.0946969  
  11 H       3.1924702    2.5464702 *  2.1552928 *  2.8619826 *  3.0129902  
  12 H       4.8337430    3.2383292    3.9746778    2.6454926 *  2.1561226 *
  13 H       5.7305462    2.5729587 *  4.5602746    3.3991836    2.1312722 *
  14 H       5.3605805    2.8471142 *  4.3134024    3.0941336    2.1312828 *
  15 H       0.9721574 *  4.7515915    1.9388553 *  3.1547196    4.4398244  

                6 C          7 C          8 H          9 H         10 H     

   1 O       2.4596968 *  4.9051244    2.5723939 *  3.1734574    2.5415128 *
   2 O       2.7663794 *  2.3729633 *  3.3228592    2.5629745 *  3.8416193  
   3 C       1.5076662 *  3.8158639    2.1049759 *  2.1520429 *  2.1674420 *
   4 C       2.5249001 *  2.5563670 *  1.0863832 *  2.8749528 *  3.4147308  
   5 C       3.0222231    1.5025153 *  2.2133374 *  3.0423526    4.0946969  
   6 C       0.0000000    4.5178884    3.5023326    1.0928966 *  1.0912436 *
   7 C       4.5178884    0.0000000    2.6944610 *  4.4964709    5.5805774  
   8 H       3.5023326    2.6944610 *  0.0000000    3.8832142    4.2722011  
   9 H       1.0928966 *  4.4964709    3.8832142    0.0000000    1.7543912 *
  10 H       1.0912436 *  5.5805774    4.2722011    1.7543912 *  0.0000000  
  11 H       1.0962031 *  4.4655925    3.8753855    1.7885257 *  1.7559456 *
  12 H       4.9518114    1.0968278 *  2.3676354 *  5.1154587    5.9489561  
  13 H       5.0441414    1.0960004 *  3.6462931    5.0241192    6.1227743  
  14 H       4.9969109    1.0906250 *  3.1609603    4.7681496    6.0473719  
  15 H       2.4138292 *  5.7040723    3.5172353    3.1576984    2.0679935 *

               11 H         12 H         13 H         14 H         15 H     

   1 O       3.1924702    4.8337430    5.7305462    5.3605805    0.9721574 *
   2 O       2.5464702 *  3.2383292    2.5729587 *  2.8471142 *  4.7515915  
   3 C       2.1552928 *  3.9746778    4.5602746    4.3134024    1.9388553 *
   4 C       2.8619826 *  2.6454926 *  3.3991836    3.0941336    3.1547196  
   5 C       3.0129902    2.1561226 *  2.1312722 *  2.1312828 *  4.4398244  
   6 C       1.0962031 *  4.9518114    5.0441414    4.9969109    2.4138292 *
   7 C       4.4655925    1.0968278 *  1.0960004 *  1.0906250 *  5.7040723  
   8 H       3.8753855    2.3676354 *  3.6462931    3.1609603    3.5172353  
   9 H       1.7885257 *  5.1154587    5.0241192    4.7681496    3.1576984  
  10 H       1.7559456 *  5.9489561    6.1227743    6.0473719    2.0679935 *
  11 H       0.0000000    4.9309410    4.7690741    5.1078016    3.1889740  
  12 H       4.9309410    0.0000000    1.7691286 *  1.7873517 *  5.7202411  
  13 H       4.7690741    1.7691286 *  0.0000000    1.7889071 *  6.4746941  
  14 H       5.1078016    1.7873517 *  1.7889071 *  0.0000000    6.1561921  
  15 H       3.1889740    5.7202411    6.4746941    6.1561921    0.0000000  

  * ... LESS THAN  3.000


     ATOMIC BASIS SET
     ----------------
 THE CONTRACTED PRIMITIVE FUNCTIONS HAVE BEEN UNNORMALIZED
 THE CONTRACTED BASIS FUNCTIONS ARE NOW NORMALIZED TO UNITY

  SHELL TYPE  PRIMITIVE        EXPONENT          CONTRACTION COEFFICIENT(S)

 O         

      1   S       1          5484.6716600    0.001831074430
      1   S       2           825.2349460    0.013950172200
      1   S       3           188.0469580    0.068445078098
      1   S       4            52.9645000    0.232714335992
      1   S       5            16.8975704    0.470192897984
      1   S       6             5.7996353    0.358520852987

      2   L       7            15.5396162   -0.110777549525    0.070874268231
      2   L       8             3.5999336   -0.148026262701    0.339752839147
      2   L       9             1.0137618    1.130767015354    0.727158577316

      3   L      10             0.2700058    1.000000000000    1.000000000000

      4   D      11             0.8000000    1.000000000000

 O         

      5   S      12          5484.6716600    0.001831074430
      5   S      13           825.2349460    0.013950172200
      5   S      14           188.0469580    0.068445078098
      5   S      15            52.9645000    0.232714335992
      5   S      16            16.8975704    0.470192897984
      5   S      17             5.7996353    0.358520852987

      6   L      18            15.5396162   -0.110777549525    0.070874268231
      6   L      19             3.5999336   -0.148026262701    0.339752839147
      6   L      20             1.0137618    1.130767015354    0.727158577316

      7   L      21             0.2700058    1.000000000000    1.000000000000

      8   D      22             0.8000000    1.000000000000

 C         

      9   S      23          3047.5248800    0.001834737132
      9   S      24           457.3695180    0.014037322813
      9   S      25           103.9486850    0.068842622264
      9   S      26            29.2101553    0.232184443216
      9   S      27             9.2866630    0.467941348435
      9   S      28             3.1639270    0.362311985337

     10   L      29             7.8682723   -0.119332419775    0.068999066591
     10   L      30             1.8812885   -0.160854151696    0.316423960957
     10   L      31             0.5442493    1.143456437840    0.744308290898

     11   L      32             0.1687145    1.000000000000    1.000000000000

     12   D      33             0.8000000    1.000000000000

 C         

     13   S      34          3047.5248800    0.001834737132
     13   S      35           457.3695180    0.014037322813
     13   S      36           103.9486850    0.068842622264
     13   S      37            29.2101553    0.232184443216
     13   S      38             9.2866630    0.467941348435
     13   S      39             3.1639270    0.362311985337

     14   L      40             7.8682723   -0.119332419775    0.068999066591
     14   L      41             1.8812885   -0.160854151696    0.316423960957
     14   L      42             0.5442493    1.143456437840    0.744308290898

     15   L      43             0.1687145    1.000000000000    1.000000000000

     16   D      44             0.8000000    1.000000000000

 C         

     17   S      45          3047.5248800    0.001834737132
     17   S      46           457.3695180    0.014037322813
     17   S      47           103.9486850    0.068842622264
     17   S      48            29.2101553    0.232184443216
     17   S      49             9.2866630    0.467941348435
     17   S      50             3.1639270    0.362311985337

     18   L      51             7.8682723   -0.119332419775    0.068999066591
     18   L      52             1.8812885   -0.160854151696    0.316423960957
     18   L      53             0.5442493    1.143456437840    0.744308290898

     19   L      54             0.1687145    1.000000000000    1.000000000000

     20   D      55             0.8000000    1.000000000000

 C         

     21   S      56          3047.5248800    0.001834737132
     21   S      57           457.3695180    0.014037322813
     21   S      58           103.9486850    0.068842622264
     21   S      59            29.2101553    0.232184443216
     21   S      60             9.2866630    0.467941348435
     21   S      61             3.1639270    0.362311985337

     22   L      62             7.8682723   -0.119332419775    0.068999066591
     22   L      63             1.8812885   -0.160854151696    0.316423960957
     22   L      64             0.5442493    1.143456437840    0.744308290898

     23   L      65             0.1687145    1.000000000000    1.000000000000

     24   D      66             0.8000000    1.000000000000

 C         

     25   S      67          3047.5248800    0.001834737132
     25   S      68           457.3695180    0.014037322813
     25   S      69           103.9486850    0.068842622264
     25   S      70            29.2101553    0.232184443216
     25   S      71             9.2866630    0.467941348435
     25   S      72             3.1639270    0.362311985337

     26   L      73             7.8682723   -0.119332419775    0.068999066591
     26   L      74             1.8812885   -0.160854151696    0.316423960957
     26   L      75             0.5442493    1.143456437840    0.744308290898

     27   L      76             0.1687145    1.000000000000    1.000000000000

     28   D      77             0.8000000    1.000000000000

 H         

     29   S      78            18.7311370    0.033494604338
     29   S      79             2.8253944    0.234726953484
     29   S      80             0.6401217    0.813757326146

     30   S      81             0.1612778    1.000000000000

 H         

     31   S      82            18.7311370    0.033494604338
     31   S      83             2.8253944    0.234726953484
     31   S      84             0.6401217    0.813757326146

     32   S      85             0.1612778    1.000000000000

 H         

     33   S      86            18.7311370    0.033494604338
     33   S      87             2.8253944    0.234726953484
     33   S      88             0.6401217    0.813757326146

     34   S      89             0.1612778    1.000000000000

 H         

     35   S      90            18.7311370    0.033494604338
     35   S      91             2.8253944    0.234726953484
     35   S      92             0.6401217    0.813757326146

     36   S      93             0.1612778    1.000000000000

 H         

     37   S      94            18.7311370    0.033494604338
     37   S      95             2.8253944    0.234726953484
     37   S      96             0.6401217    0.813757326146

     38   S      97             0.1612778    1.000000000000

 H         

     39   S      98            18.7311370    0.033494604338
     39   S      99             2.8253944    0.234726953484
     39   S     100             0.6401217    0.813757326146

     40   S     101             0.1612778    1.000000000000

 H         

     41   S     102            18.7311370    0.033494604338
     41   S     103             2.8253944    0.234726953484
     41   S     104             0.6401217    0.813757326146

     42   S     105             0.1612778    1.000000000000

 H         

     43   S     106            18.7311370    0.033494604338
     43   S     107             2.8253944    0.234726953484
     43   S     108             0.6401217    0.813757326146

     44   S     109             0.1612778    1.000000000000

 TOTAL NUMBER OF BASIS SET SHELLS             =   44
 NUMBER OF CARTESIAN GAUSSIAN BASIS FUNCTIONS =  121
 NUMBER OF ELECTRONS                          =   54
 CHARGE OF MOLECULE                           =    0
 SPIN MULTIPLICITY                            =    1
 NUMBER OF OCCUPIED ORBITALS (ALPHA)          =   27
 NUMBER OF OCCUPIED ORBITALS (BETA )          =   27
 TOTAL NUMBER OF ATOMS                        =   15
 THE NUCLEAR REPULSION ENERGY IS      292.6779600962

     $CONTRL OPTIONS
     ---------------
 SCFTYP=RHF          RUNTYP=OPTIMIZE     EXETYP=RUN     
 MPLEVL=       0     CITYP =NONE         CCTYP =NONE         VBTYP =NONE    
 DFTTYP=NONE         TDDFT =NONE    
 MULT  =       1     ICHARG=       0     NZVAR =       0     COORD =UNIQUE  
 PP    =NONE         RELWFN=NONE         LOCAL =NONE         NUMGRD=       F
 ISPHER=      -1     NOSYM =       0     MAXIT =     200     UNITS =ANGS    
 PLTORB=       F     MOLPLT=       F     AIMPAC=       F     FRIEND=        
 NPRINT=       7     IREST =       0     GEOM  =INPUT   
 NORMF =       0     NORMP =       0     ITOL  =      20     ICUT  =       9
 INTTYP=BEST         GRDTYP=BEST         QMTTOL= 1.0E-06

     $SYSTEM OPTIONS
     ---------------
  REPLICATED MEMORY=   250000000 WORDS (ON EVERY NODE).
 DISTRIBUTED MEMDDI=           0 MILLION WORDS IN AGGREGATE,
 MEMDDI DISTRIBUTED OVER   1 PROCESSORS IS           0 WORDS/PROCESSOR.
 TOTAL MEMORY REQUESTED ON EACH PROCESSOR=   250000000 WORDS.
 TIMLIM=        2879.00 MINUTES, OR       2.0 DAYS.
 PARALL= F  BALTYP=  DLB     KDIAG=    0  COREFL= F
 MXSEQ2=     300 MXSEQ3=     150  mem10=         0

          ----------------
          PROPERTIES INPUT
          ----------------

     MOMENTS            FIELD           POTENTIAL          DENSITY
 IEMOM =       1   IEFLD =       0   IEPOT =       0   IEDEN =       0
 WHERE =COMASS     WHERE =NUCLEI     WHERE =NUCLEI     WHERE =NUCLEI  
 OUTPUT=BOTH       OUTPUT=BOTH       OUTPUT=BOTH       OUTPUT=BOTH    
 IEMINT=       0   IEFINT=       0                     IEDINT=       0
                                                       MORB  =       0
          EXTRAPOLATION IN EFFECT
          SOSCF IN EFFECT
 ORBITAL PRINTING OPTION: NPREO=     1   121     2     1

     -------------------------------
     INTEGRAL TRANSFORMATION OPTIONS
     -------------------------------
     NWORD  =            0
     CUTOFF = 1.0E-09     MPTRAN =       0
     DIRTRF =       T     AOINTS =DUP     

          ----------------------
          INTEGRAL INPUT OPTIONS
          ----------------------
 NOPK  =       1 NORDER=       0 SCHWRZ=       T

     ------------------------------------------
     THE POINT GROUP IS C1 , NAXIS= 0, ORDER= 1
     ------------------------------------------

     DIMENSIONS OF THE SYMMETRY SUBSPACES ARE
 A   =  121

 ..... DONE SETTING UP THE RUN .....
 STEP CPU TIME =     0.01 TOTAL CPU TIME =          0.0 (      0.0 MIN)
 TOTAL WALL CLOCK TIME=          0.0 SECONDS, CPU UTILIZATION IS    50.00%


          -----------------------------
          STATIONARY POINT LOCATION RUN
          -----------------------------

 OBTAINING INITIAL HESSIAN, HESS=GUESS   
 CARTESIAN COORDINATE OPTIMIZATION USING BADGER'S RULE FORCE CONSTANT GUESS

          PARAMETERS CONTROLLING GEOMETRY SEARCH ARE
          METHOD =QA                  UPHESS =BFGS    
          NNEG   =         0          NFRZ   =         0
          NSTEP  =       999          IFOLOW =         1
          HESS   =GUESS               RESTAR =         F
          IHREP  =         0          HSSEND =         F
          NPRT   =         0          NPUN   =         0
          OPTTOL = 5.000E-04          RMIN   = 1.500E-03
          RMAX   = 1.000E-01          RLIM   = 7.000E-02
          DXMAX  = 3.000E-01          PURIFY =         F
          MOVIE  =         F          TRUPD  =         T
          TRMAX  = 5.000E-01          TRMIN  = 5.000E-02
          ITBMAT =         5          STPT   =         F
          STSTEP = 1.000E-02          PROJCT=          T

 BEGINNING GEOMETRY SEARCH POINT NSERCH=   0 ...

 COORDINATES OF ALL ATOMS ARE (ANGS)
   ATOM   CHARGE       X              Y              Z
 ------------------------------------------------------------
 O           8.0  -2.3581200000  -0.9098200000   0.0077300000
 O           8.0   1.3634000000   1.2112100000   0.0166000000
 C           6.0  -1.2034400000  -0.1397800000  -0.0021200000
 C           6.0  -0.0080800000  -0.7520600000   0.0001100000
 C           6.0   1.2954400000  -0.0136400000  -0.0055600000
 C           6.0  -1.3990600000   1.3550900000  -0.0145200000
 C           6.0   2.5465700000  -0.8456400000  -0.0041800000
 H           1.0   0.0412600000  -1.8372800000   0.0096800000
 H           1.0  -0.9732300000   1.8075400000   0.8845800000
 H           1.0  -2.4550000000   1.6294400000  -0.0376600000
 H           1.0  -0.9369200000   1.7997200000  -0.9035600000
 H           1.0   2.3649200000  -1.8336400000  -0.4445100000
 H           1.0   3.3110800000  -0.3481800000  -0.6118600000
 H           1.0   2.9059600000  -0.9617700000   1.0189600000
 H           1.0  -3.1335300000  -0.3234600000   0.0110800000

          ********************
          1 ELECTRON INTEGRALS
          ********************
 ...... END OF ONE-ELECTRON INTEGRALS ......
 STEP CPU TIME =     0.02 TOTAL CPU TIME =          0.0 (      0.0 MIN)
 TOTAL WALL CLOCK TIME=          0.0 SECONDS, CPU UTILIZATION IS    75.00%

          -------------
          GUESS OPTIONS
          -------------
          GUESS =HUCKEL            NORB  =       0          NORDER=       0
          MIX   =       F          PRTMO =       F          PUNMO =       F
          TOLZ  = 1.0E-08          TOLE  = 1.0E-05
          SYMDEN=       F          PURIFY=       F

 INITIAL GUESS ORBITALS GENERATED BY HUCKEL   ROUTINE.
 HUCKEL GUESS REQUIRES    124942 WORDS.

 SYMMETRIES FOR INITIAL GUESS ORBITALS FOLLOW.   BOTH SET(S).
    27 ORBITALS ARE OCCUPIED (    7 CORE ORBITALS).
     8=A        9=A       10=A       11=A       12=A       13=A       14=A   
    15=A       16=A       17=A       18=A       19=A       20=A       21=A   
    22=A       23=A       24=A       25=A       26=A       27=A       28=A   
    29=A       30=A       31=A       32=A       33=A       34=A       35=A   
    36=A       37=A   
 ...... END OF INITIAL ORBITAL SELECTION ......
 STEP CPU TIME =     0.01 TOTAL CPU TIME =          0.0 (      0.0 MIN)
 TOTAL WALL CLOCK TIME=          0.1 SECONDS, CPU UTILIZATION IS    57.14%

                    ----------------------
                    AO INTEGRAL TECHNOLOGY
                    ----------------------
     S,P,L SHELL ROTATED AXIS INTEGRALS, REPROGRAMMED BY
        KAZUYA ISHIMURA (IMS) AND JOSE SIERRA (SYNSTAR).
     S,P,D,L SHELL ROTATED AXIS INTEGRALS PROGRAMMED BY
        KAZUYA ISHIMURA (INSTITUTE FOR MOLECULAR SCIENCE).
     S,P,D,F,G SHELL TO TOTAL QUARTET ANGULAR MOMENTUM SUM 5,
        ERIC PROGRAM BY GRAHAM FLETCHER (ELORET AND NASA ADVANCED
        SUPERCOMPUTING DIVISION, AMES RESEARCH CENTER).
     S,P,D,F,G,L SHELL GENERAL RYS QUADRATURE PROGRAMMED BY
        MICHEL DUPUIS (PACIFIC NORTHWEST NATIONAL LABORATORY).

          --------------------
          2 ELECTRON INTEGRALS
          --------------------

 DIRECT SCF METHOD SKIPS INTEGRAL STORAGE ON DISK.
 DIRECT TRANSFORMATION SKIPS AO INTEGRAL STORAGE ON DISK.
  ...... END OF TWO-ELECTRON INTEGRALS .....
 STEP CPU TIME =     0.00 TOTAL CPU TIME =          0.0 (      0.0 MIN)
 TOTAL WALL CLOCK TIME=          0.1 SECONDS, CPU UTILIZATION IS    50.00%

          --------------------------
                 RHF SCF CALCULATION
          --------------------------

     NUCLEAR ENERGY =       292.6779600962
     MAXIT =  200     NPUNCH=    2
     EXTRAP=T  DAMP=F  SHIFT=F  RSTRCT=F  DIIS=F  DEM=F  SOSCF=T
     DENSITY MATRIX CONV=  2.00E-05
     SOSCF WILL OPTIMIZE    2538 ORBITAL ROTATIONS, SOGTOL=   0.250
     MEMORY REQUIRED FOR RHF ITERS=    161709 WORDS.

 DIRECT SCF CALCULATION, SCHWRZ=T   FDIFF=T,  DIRTHR=  0.00E+00 NITDIR=10
 SCHWARZ INEQUALITY OVERHEAD:      7243 INTEGRALS, T=        0.01

                                                                                   NONZERO     BLOCKS
 ITER EX DEM     TOTAL ENERGY        E CHANGE  DENSITY CHANGE     ORB. GRAD      INTEGRALS    SKIPPED
   1  0  0     -342.6779548239  -342.6779548239   0.292257153   0.000000000       20264193     140658
          ---------------START SECOND ORDER SCF---------------
   2  1  0     -343.5815472272    -0.9035924033   0.205550644   0.063952666       20262653     144943
   3  2  0     -343.6350898425    -0.0535426152   0.101574513   0.061619582       20186011     154317
   4  3  0     -343.6964982691    -0.0614084267   0.017169446   0.008151868       20080374     164035
   5  4  0     -343.6978014048    -0.0013031357   0.006973485   0.002762778       19886415     176822
   6  5  0     -343.6980033775    -0.0002019727   0.001746558   0.001367424       19643265     187938
   7  6  0     -343.6980238639    -0.0000204864   0.000596145   0.000190299       19183090     207242
   8  7  0     -343.6980257886    -0.0000019247   0.000273161   0.000064754       18675129     221197
   9  8  0     -343.6980260103    -0.0000002217   0.000047977   0.000013858       18206145     234605
  10  9  0     -343.6980260242    -0.0000000139   0.000021320   0.000008315       17171041     256519
  11 10  0     -343.6980260262    -0.0000000020   0.000006208   0.000002494       16431310     271039
  12 11  0     -343.6980260266    -0.0000000004   0.000002531   0.000000588       15045472     297437

          -----------------
          DENSITY CONVERGED
          -----------------
     TIME TO FORM FOCK OPERATORS=       6.0 SECONDS (       0.5 SEC/ITER)
     FOCK TIME ON FIRST ITERATION=       0.6, LAST ITERATION=       0.4
     TIME TO SOLVE SCF EQUATIONS=       0.0 SECONDS (       0.0 SEC/ITER)

 FINAL RHF ENERGY IS     -343.6980260266 AFTER  12 ITERATIONS

          ------------
          EIGENVECTORS
          ------------

                      1          2          3          4          5
                  -20.6102   -20.5331   -11.3336   -11.3279   -11.2399
                     A          A          A          A          A   
    1  O  1  S    0.994653  -0.000008  -0.000030  -0.000017  -0.000031
    2  O  1  S    0.021158  -0.000028   0.000842  -0.000058  -0.000198
    3  O  1  X    0.000032  -0.000003   0.000163  -0.000016  -0.000052
    4  O  1  Y    0.001313  -0.000000   0.000116  -0.000003  -0.000058
    5  O  1  Z   -0.000005   0.000000  -0.000001   0.000001  -0.000000
    6  O  1  S    0.003929   0.000196  -0.002764   0.000236   0.000534
    7  O  1  X    0.000085   0.000055  -0.001647   0.000027   0.000319
    8  O  1  Y   -0.000709   0.000026  -0.001069   0.000108  -0.000079
    9  O  1  Z    0.000003  -0.000001   0.000012  -0.000006   0.000004
   10  O  1 XX   -0.004170  -0.000012  -0.000413  -0.000065  -0.000016
   11  O  1 YY   -0.004070  -0.000016   0.000054  -0.000022  -0.000085
   12  O  1 ZZ   -0.003897  -0.000013   0.000616  -0.000067  -0.000193
   13  O  1 XY   -0.000020   0.000003  -0.000591   0.000001   0.000008
   14  O  1 XZ    0.000003  -0.000000   0.000009  -0.000001  -0.000001
   15  O  1 YZ    0.000000   0.000000   0.000007  -0.000002   0.000000
   16  O  2  S    0.000003   0.994675   0.000015  -0.000183  -0.000073
   17  O  2  S   -0.000000   0.020939   0.000048   0.000993  -0.000330
   18  O  2  X    0.000005  -0.000085  -0.000016  -0.000022   0.000092
   19  O  2  Y    0.000001  -0.001489   0.000019  -0.000276   0.000029
   20  O  2  Z   -0.000000  -0.000026  -0.000001  -0.000007   0.000001
   21  O  2  S    0.000016   0.004712  -0.000227  -0.005396   0.001629
   22  O  2  X   -0.000051  -0.000044   0.000176   0.000209  -0.000300
   23  O  2  Y   -0.000005   0.000037  -0.000110   0.002320  -0.000476
   24  O  2  Z    0.000000  -0.000003   0.000002   0.000054  -0.000008
   25  O  2 XX   -0.000002  -0.003921   0.000008   0.000427  -0.000156
   26  O  2 YY   -0.000004  -0.003688   0.000081   0.000081  -0.000173
   27  O  2 ZZ    0.000005  -0.004206   0.000042   0.000681  -0.000304
   28  O  2 XY    0.000010   0.000012  -0.000009  -0.000033   0.000028
   29  O  2 XZ    0.000000  -0.000005  -0.000001   0.000004   0.000002
   30  O  2 YZ   -0.000000   0.000011   0.000000  -0.000017   0.000003
   31  C  3  S   -0.000009  -0.000009   0.995829  -0.000260  -0.003636
   32  C  3  S    0.000334  -0.000033   0.026387  -0.000132   0.000113
   33  C  3  X   -0.000257  -0.000022  -0.001032   0.000050   0.000051
   34  C  3  Y   -0.000238   0.000005  -0.000393  -0.000017  -0.000018
   35  C  3  Z    0.000002   0.000000  -0.000003  -0.000002   0.000001
   36  C  3  S   -0.000268   0.000149  -0.011414   0.001976   0.002583
   37  C  3  X   -0.000511   0.000233  -0.003557   0.001300  -0.001222
   38  C  3  Y    0.000641   0.000271  -0.002906  -0.001172   0.003183
   39  C  3  Z   -0.000003  -0.000003   0.000048   0.000034  -0.000031
   40  C  3 XX   -0.000037  -0.000023  -0.000874   0.000110  -0.000247
   41  C  3 YY   -0.000000  -0.000020  -0.001232   0.000035  -0.000590
   42  C  3 ZZ   -0.000058  -0.000013  -0.002141  -0.000029  -0.000130
   43  C  3 XY    0.000007   0.000016   0.000138  -0.000072   0.000110
   44  C  3 XZ   -0.000000  -0.000000  -0.000004   0.000003  -0.000001
   45  C  3 YZ   -0.000001   0.000000  -0.000010  -0.000003   0.000005
   46  C  4  S   -0.000009   0.000005   0.006421   0.002946  -0.000491
   47  C  4  S   -0.000005   0.000029  -0.000259   0.000290  -0.000250
   48  C  4  X   -0.000020  -0.000003   0.000128  -0.000118  -0.000004
   49  C  4  Y   -0.000001  -0.000026  -0.000146   0.000006  -0.000077
   50  C  4  Z    0.000000  -0.000001   0.000004   0.000010   0.000001
   51  C  4  S    0.000986  -0.000434   0.005328   0.002645   0.001496
   52  C  4  X    0.000017  -0.000293  -0.000983   0.003992  -0.001299
   53  C  4  Y    0.000298  -0.000137   0.002852  -0.001273   0.000499
   54  C  4  Z   -0.000003   0.000003  -0.000032  -0.000062   0.000007
   55  C  4 XX   -0.000061   0.000052  -0.000299  -0.000557   0.000153
   56  C  4 YY   -0.000004  -0.000053  -0.000229  -0.000334   0.000026
   57  C  4 ZZ   -0.000027  -0.000006  -0.000151  -0.000101  -0.000095
   58  C  4 XY   -0.000005  -0.000036  -0.000124  -0.000191  -0.000015
   59  C  4 XZ    0.000000  -0.000001   0.000001  -0.000001  -0.000000
   60  C  4 YZ   -0.000000  -0.000000   0.000001  -0.000005  -0.000000
   61  C  5  S    0.000007  -0.000009   0.000235   0.995898   0.000029
   62  C  5  S    0.000036   0.000444  -0.000038   0.026652  -0.000016
   63  C  5  X   -0.000001  -0.000001   0.000130   0.000054   0.000066
   64  C  5  Y   -0.000004  -0.000024  -0.000051   0.000469  -0.000096
   65  C  5  Z   -0.000000  -0.000001  -0.000002   0.000014  -0.000002
   66  C  5  S   -0.000383   0.000074  -0.001738  -0.009656  -0.000646
   67  C  5  X    0.000284  -0.000099  -0.000144  -0.000106  -0.000193
   68  C  5  Y    0.000084  -0.000758   0.000587   0.006456  -0.000673
   69  C  5  Z   -0.000001  -0.000007   0.000003   0.000130  -0.000019
   70  C  5 XX   -0.000005  -0.000051   0.000042  -0.001501  -0.000097
   71  C  5 YY    0.000015  -0.000736  -0.000004  -0.000557  -0.000073
   72  C  5 ZZ    0.000015  -0.000054  -0.000017  -0.002180  -0.000030
   73  C  5 XY    0.000008  -0.000037   0.000010   0.000060   0.000051
   74  C  5 XZ    0.000000  -0.000000  -0.000002   0.000013  -0.000001
   75  C  5 YZ   -0.000000  -0.000014  -0.000002   0.000023  -0.000001
   76  C  6  S    0.000004   0.000005   0.003330  -0.000074   0.995731
   77  C  6  S    0.000065   0.000029   0.000167  -0.000102   0.028707
   78  C  6  X    0.000019   0.000029   0.000079  -0.000057  -0.000046
   79  C  6  Y    0.000057   0.000002   0.000093   0.000026  -0.000346
   80  C  6  Z   -0.000001   0.000000   0.000002  -0.000000   0.000005
   81  C  6  S   -0.000482  -0.000135   0.003755   0.000913  -0.016092
   82  C  6  X    0.000065  -0.000246   0.000843   0.000021  -0.000175
   83  C  6  Y    0.000193   0.000125  -0.002031  -0.000383   0.001283
   84  C  6  Z    0.000001  -0.000004  -0.000005   0.000000  -0.000020
   85  C  6 XX   -0.000006   0.000001  -0.000163  -0.000073  -0.001826
   86  C  6 YY   -0.000063   0.000005  -0.000550  -0.000032  -0.001860
   87  C  6 ZZ   -0.000015  -0.000005  -0.000055  -0.000060  -0.001826
   88  C  6 XY   -0.000034   0.000007  -0.000114   0.000026  -0.000007
   89  C  6 XZ    0.000000   0.000000  -0.000001  -0.000002   0.000002
   90  C  6 YZ    0.000001  -0.000000   0.000005   0.000001   0.000002
   91  C  7  S    0.000001  -0.000001  -0.000023   0.003142  -0.000063
   92  C  7  S   -0.000000   0.000020  -0.000134   0.000179  -0.000096
   93  C  7  X   -0.000001   0.000014  -0.000029   0.000001   0.000009
   94  C  7  Y    0.000001  -0.000030   0.000029  -0.000050   0.000007
   95  C  7  Z    0.000000  -0.000001   0.000001   0.000062  -0.000006
   96  C  7  S   -0.000043  -0.000183   0.001063   0.004272   0.000321
   97  C  7  X   -0.000023   0.000156  -0.000499  -0.002262  -0.000140
   98  C  7  Y   -0.000054  -0.000004   0.000085   0.000180   0.000176
   99  C  7  Z   -0.000002   0.000003   0.000001  -0.000412   0.000045
  100  C  7 XX    0.000010   0.000010   0.000027  -0.000300   0.000002
  101  C  7 YY   -0.000005  -0.000051  -0.000039  -0.000371  -0.000003
  102  C  7 ZZ    0.000001  -0.000024  -0.000034  -0.000070  -0.000034
  103  C  7 XY    0.000001   0.000024  -0.000013   0.000276  -0.000036
  104  C  7 XZ    0.000002  -0.000000   0.000007   0.000016   0.000000
  105  C  7 YZ    0.000003  -0.000001   0.000009   0.000035  -0.000002
  106  H  8  S    0.000028   0.000019   0.000064  -0.000265  -0.000003
  107  H  8  S   -0.000036  -0.000025   0.000736  -0.000935   0.000249
  108  H  9  S    0.000022   0.000049  -0.000183  -0.000045   0.000226
  109  H  9  S   -0.000019  -0.000060   0.000254  -0.000071   0.002519
  110  H 10  S   -0.000003  -0.000020  -0.000097  -0.000024   0.000150
  111  H 10  S    0.000093  -0.000118   0.000284   0.000025   0.002471
  112  H 11  S    0.000022   0.000048  -0.000183  -0.000054   0.000231
  113  H 11  S   -0.000015  -0.000059   0.000218  -0.000052   0.002495
  114  H 12  S   -0.000006   0.000011  -0.000051  -0.000173  -0.000016
  115  H 12  S   -0.000010   0.000001  -0.000082  -0.000465   0.000044
  116  H 13  S    0.000005   0.000011  -0.000022  -0.000110  -0.000019
  117  H 13  S    0.000011  -0.000048   0.000018   0.000198   0.000018
  118  H 14  S    0.000000   0.000017  -0.000040  -0.000154  -0.000022
  119  H 14  S    0.000006  -0.000037  -0.000024   0.000525  -0.000030
  120  H 15  S    0.000437  -0.000004   0.000134  -0.000000  -0.000035
  121  H 15  S   -0.000261   0.000018  -0.000179   0.000053  -0.000010

                      6          7          8          9         10
                  -11.2266   -11.2178    -1.4065    -1.3631    -1.0731
                     A          A          A          A          A   
    1  O  1  S   -0.000012   0.000018  -0.201691   0.013132   0.052596
    2  O  1  S   -0.000050  -0.000040   0.451652  -0.029874  -0.123258
    3  O  1  X   -0.000013   0.000001   0.014415   0.000929   0.090322
    4  O  1  Y   -0.000008   0.000005   0.087556  -0.005275   0.004866
    5  O  1  Z   -0.000002  -0.000000  -0.000376   0.000011  -0.000563
    6  O  1  S    0.000211  -0.000129   0.444829  -0.027800  -0.132833
    7  O  1  X    0.000011   0.000019   0.012186   0.001574   0.053080
    8  O  1  Y    0.000118   0.000039   0.054468  -0.003915   0.000370
    9  O  1  Z    0.000013  -0.000001  -0.000231   0.000041  -0.000353
   10  O  1 XX   -0.000044   0.000153   0.020780  -0.001129  -0.002256
   11  O  1 YY   -0.000011   0.000048   0.014389  -0.001308  -0.002831
   12  O  1 ZZ   -0.000052  -0.000007  -0.003226   0.000057  -0.001806
   13  O  1 XY    0.000006   0.000022  -0.003305   0.000520   0.012390
   14  O  1 XZ    0.000002  -0.000001  -0.000174   0.000013  -0.000034
   15  O  1 YZ    0.000002  -0.000001  -0.000035   0.000010  -0.000081
   16  O  2  S   -0.000027   0.000040  -0.009104  -0.193446   0.043629
   17  O  2  S   -0.000199   0.000110   0.018696   0.421649  -0.096492
   18  O  2  X   -0.000044   0.000018  -0.001254  -0.008366  -0.018118
   19  O  2  Y    0.000036  -0.000030  -0.006545  -0.131179   0.001926
   20  O  2  Z   -0.000013  -0.000003  -0.000109  -0.002227   0.000264
   21  O  2  S    0.000556  -0.001189   0.025310   0.413837  -0.111075
   22  O  2  X   -0.000200   0.000310  -0.001459  -0.005839  -0.007141
   23  O  2  Y   -0.000275   0.000240  -0.003945  -0.057972   0.002185
   24  O  2  Z    0.000060   0.000008  -0.000079  -0.001101  -0.000042
   25  O  2 XX   -0.000049   0.000150  -0.000585  -0.003781   0.000287
   26  O  2 YY    0.000029   0.000190   0.000442   0.016966  -0.001119
   27  O  2 ZZ   -0.000203   0.000011  -0.000497  -0.003832   0.000693
   28  O  2 XY    0.000014  -0.000047   0.000246   0.001651   0.001577
   29  O  2 XZ    0.000012  -0.000004   0.000007   0.000048   0.000030
   30  O  2 YZ   -0.000009   0.000004   0.000019   0.000424  -0.000045
   31  C  3  S   -0.000013  -0.007102  -0.075621  -0.002720  -0.124476
   32  C  3  S   -0.000090  -0.000482   0.143498   0.006385   0.253184
   33  C  3  X    0.000012  -0.000190  -0.087435   0.015669   0.113707
   34  C  3  Y    0.000012   0.000105  -0.054368   0.004039   0.025103
   35  C  3  Z    0.000009   0.000000   0.000737   0.000003  -0.000525
   36  C  3  S    0.001052   0.005770   0.026322  -0.018435   0.167235
   37  C  3  X    0.000912   0.002294   0.008229  -0.010317   0.027469
   38  C  3  Y   -0.000706  -0.000211   0.027151   0.008550   0.032736
   39  C  3  Z   -0.000064   0.000001  -0.000353  -0.000222  -0.000172
   40  C  3 XX    0.000025  -0.000397   0.016264  -0.000175   0.001213
   41  C  3 YY   -0.000028  -0.000408   0.000626  -0.000151   0.008073
   42  C  3 ZZ   -0.000042  -0.000104  -0.010853   0.000122  -0.009968
   43  C  3 XY   -0.000029   0.000058   0.015999  -0.001152  -0.013532
   44  C  3 XZ   -0.000003   0.000001  -0.000231   0.000024   0.000081
   45  C  3 YZ    0.000002   0.000002  -0.000160   0.000015  -0.000149
   46  C  4  S   -0.001230   0.995575  -0.017021  -0.018512  -0.128764
   47  C  4  S   -0.000166   0.028098   0.031567   0.033228   0.241737
   48  C  4  X   -0.000109  -0.000144  -0.022832   0.020010  -0.050914
   49  C  4  Y    0.000042   0.000366   0.006510   0.019255   0.052726
   50  C  4  Z   -0.000019   0.000001   0.000008   0.000000  -0.000288
   51  C  4  S   -0.000481  -0.014042   0.026556   0.021714   0.181629
   52  C  4  X    0.001338   0.000359  -0.019964  -0.021433  -0.002767
   53  C  4  Y   -0.000202  -0.002511  -0.004240   0.019442  -0.010000
   54  C  4  Z    0.000105   0.000004   0.000204   0.000368  -0.000235
   55  C  4 XX   -0.000011  -0.001601   0.005151   0.004536   0.010823
   56  C  4 YY    0.000048  -0.001985  -0.001089   0.002732   0.005621
   57  C  4 ZZ   -0.000069  -0.002348  -0.001227  -0.001715  -0.009253
   58  C  4 XY    0.000069  -0.000194  -0.001120   0.004569  -0.005797
   59  C  4 XZ    0.000007  -0.000000  -0.000003   0.000025  -0.000000
   60  C  4 YZ    0.000001  -0.000003   0.000014  -0.000000  -0.000164
   61  C  5  S   -0.003447  -0.003283  -0.006941  -0.114164  -0.039087
   62  C  5  S    0.000026   0.000019   0.013335   0.216770   0.081915
   63  C  5  X   -0.000033   0.000094  -0.003670   0.009325  -0.055134
   64  C  5  Y   -0.000085   0.000024   0.006518   0.164974  -0.093517
   65  C  5  Z    0.000007  -0.000003   0.000155   0.003207  -0.000659
   66  C  5  S    0.003186   0.004102   0.012538   0.075028   0.058407
   67  C  5  X    0.002277  -0.002454   0.005139   0.003209  -0.008667
   68  C  5  Y   -0.001048   0.000222  -0.012984  -0.045433  -0.013154
   69  C  5  Z   -0.000097   0.000021  -0.000239  -0.000828   0.000143
   70  C  5 XX   -0.000403  -0.000478  -0.000192  -0.015134   0.014324
   71  C  5 YY   -0.000318  -0.000392   0.001127   0.029532  -0.005765
   72  C  5 ZZ   -0.000121  -0.000131  -0.000849  -0.017107  -0.002418
   73  C  5 XY    0.000156  -0.000232   0.000275   0.002750   0.002676
   74  C  5 XZ    0.000002   0.000001  -0.000006   0.000098  -0.000073
   75  C  5 YZ   -0.000007   0.000003   0.000042   0.000935  -0.000193
   76  C  6  S    0.000027   0.000452  -0.014637  -0.003011  -0.091438
   77  C  6  S   -0.000085  -0.000052   0.027645   0.006046   0.171518
   78  C  6  X   -0.000032  -0.000044  -0.003725   0.004040   0.015206
   79  C  6  Y    0.000004   0.000064  -0.021083  -0.000906  -0.050139
   80  C  6  Z   -0.000005  -0.000001   0.000175   0.000012   0.000573
   81  C  6  S    0.000579  -0.000849   0.001764  -0.001776   0.136036
   82  C  6  X    0.000052  -0.000087  -0.005947   0.003864  -0.007172
   83  C  6  Y   -0.000264   0.000210  -0.001302   0.000451   0.001534
   84  C  6  Z    0.000049  -0.000002   0.000236   0.000114  -0.000220
   85  C  6 XX   -0.000021   0.000045  -0.000026   0.000841   0.001243
   86  C  6 YY   -0.000005   0.000082   0.005913   0.000250   0.009884
   87  C  6 ZZ   -0.000038  -0.000020  -0.000523   0.000295   0.002917
   88  C  6 XY    0.000017  -0.000013   0.000790  -0.000363  -0.002193
   89  C  6 XZ    0.000002  -0.000001   0.000017   0.000005  -0.000018
   90  C  6 YZ   -0.000003  -0.000001  -0.000059  -0.000004  -0.000061
   91  C  7  S    0.995705   0.001193  -0.000948  -0.018832  -0.032130
   92  C  7  S    0.028792  -0.000123   0.002522   0.036301   0.060594
   93  C  7  X   -0.000185   0.000023  -0.000758  -0.019104  -0.020789
   94  C  7  Y    0.000037  -0.000001   0.000768   0.020178   0.000607
   95  C  7  Z    0.000058   0.000001  -0.000069  -0.000014  -0.000037
   96  C  7  S   -0.015652   0.000762  -0.008817   0.000457   0.049849
   97  C  7  X    0.000963  -0.000234   0.003497   0.007895  -0.001936
   98  C  7  Y   -0.000595   0.000245  -0.001335   0.006200  -0.001736
   99  C  7  Z   -0.000033  -0.000005   0.000646   0.001073   0.000114
  100  C  7 XX   -0.001901   0.000034   0.000021   0.003712   0.002979
  101  C  7 YY   -0.001910   0.000020   0.000202   0.003341   0.000583
  102  C  7 ZZ   -0.001858  -0.000052   0.000010   0.000011   0.000935
  103  C  7 XY    0.000004  -0.000009  -0.000115  -0.005082  -0.000634
  104  C  7 XZ    0.000000   0.000001   0.000003  -0.000218   0.000222
  105  C  7 YZ   -0.000006   0.000001  -0.000007  -0.000326   0.000383
  106  H  8  S   -0.000064  -0.000187   0.005747   0.005532   0.060304
  107  H  8  S   -0.000111   0.001344  -0.001096   0.006462   0.000589
  108  H  9  S   -0.000028  -0.000003   0.004515   0.002774   0.051597
  109  H  9  S   -0.000038   0.000071   0.001385   0.002373   0.006111
  110  H 10  S   -0.000014   0.000038   0.007730   0.000685   0.046633
  111  H 10  S    0.000043   0.000124   0.004224   0.001035   0.000440
  112  H 11  S   -0.000025  -0.000004   0.004482   0.002880   0.051375
  113  H 11  S    0.000012   0.000069   0.001620   0.002524   0.006125
  114  H 12  S    0.000177  -0.000035   0.000532   0.006050   0.021706
  115  H 12  S    0.002470  -0.000007   0.001029   0.002785   0.004934
  116  H 13  S    0.000167  -0.000015   0.000610   0.008604   0.014315
  117  H 13  S    0.002472  -0.000001   0.000555   0.000563   0.000827
  118  H 14  S    0.000122  -0.000021   0.000534   0.007114   0.017817
  119  H 14  S    0.002621  -0.000008  -0.000146   0.000520   0.002029
  120  H 15  S   -0.000012   0.000006   0.114598  -0.008028  -0.061070
  121  H 15  S    0.000040   0.000141  -0.005831  -0.000160  -0.004755

                     11         12         13         14         15
                   -1.0128    -0.9587    -0.8246    -0.7164    -0.6993
                     A          A          A          A          A   
    1  O  1  S   -0.019432   0.003060   0.019479   0.013681  -0.037088
    2  O  1  S    0.046782  -0.008271  -0.048621  -0.036689   0.088449
    3  O  1  X   -0.025649  -0.064207   0.291314   0.237093   0.250213
    4  O  1  Y   -0.019265   0.041446   0.006435   0.108240  -0.212873
    5  O  1  Z    0.000328  -0.000057  -0.001803  -0.002832  -0.000697
    6  O  1  S    0.048827  -0.007670  -0.048615  -0.032903   0.139032
    7  O  1  X   -0.018230  -0.033015   0.177007   0.155238   0.152755
    8  O  1  Y   -0.009169   0.022962   0.001203   0.067565  -0.139232
    9  O  1  Z    0.000096  -0.000135  -0.001089  -0.001767  -0.000487
   10  O  1 XX    0.002185  -0.003838  -0.001317  -0.007210  -0.000163
   11  O  1 YY   -0.000672   0.005330  -0.004479   0.005243  -0.016605
   12  O  1 ZZ    0.001308  -0.001093  -0.001298  -0.003580   0.006426
   13  O  1 XY   -0.004202  -0.005024   0.027631   0.021792   0.019060
   14  O  1 XZ   -0.000002   0.000011  -0.000088  -0.000064  -0.000023
   15  O  1 YZ    0.000030  -0.000026  -0.000160  -0.000224  -0.000049
   16  O  2  S    0.049279   0.004308  -0.037487   0.061152  -0.009395
   17  O  2  S   -0.111351  -0.009760   0.087394  -0.144442   0.020621
   18  O  2  X    0.025957   0.026455   0.060093   0.033303   0.033658
   19  O  2  Y   -0.023498   0.003796   0.059021  -0.225583   0.038679
   20  O  2  Z    0.000165  -0.000026   0.000466  -0.003406   0.000406
   21  O  2  S   -0.124641  -0.008435   0.109496  -0.195432   0.035330
   22  O  2  X    0.011547   0.010598   0.029848   0.014903   0.018888
   23  O  2  Y   -0.012494   0.001531   0.033848  -0.131358   0.021211
   24  O  2  Z   -0.000580  -0.000396   0.000217  -0.002262   0.000308
   25  O  2 XX   -0.001950  -0.000119   0.002209  -0.007498   0.000018
   26  O  2 YY    0.001097  -0.000291  -0.003351   0.015006  -0.003180
   27  O  2 ZZ   -0.000027   0.000245   0.001591  -0.004558   0.000356
   28  O  2 XY   -0.002320  -0.003272  -0.005520  -0.000802  -0.002663
   29  O  2 XZ   -0.000050  -0.000048  -0.000107   0.000025  -0.000034
   30  O  2 YZ    0.000042   0.000046  -0.000034   0.000358  -0.000080
   31  C  3  S    0.040953   0.026806  -0.092338  -0.028231   0.065414
   32  C  3  S   -0.084427  -0.054669   0.195152   0.061572  -0.144165
   33  C  3  X    0.010732  -0.113764  -0.049616  -0.220021  -0.106152
   34  C  3  Y   -0.071934   0.164965  -0.095934   0.037511  -0.184023
   35  C  3  Z    0.000513  -0.001214   0.000861  -0.000061   0.001277
   36  C  3  S   -0.046894  -0.056089   0.143799  -0.001236  -0.113260
   37  C  3  X    0.000508  -0.023468  -0.006998  -0.074467   0.003725
   38  C  3  Y   -0.023581   0.020986   0.025957   0.053159  -0.074945
   39  C  3  Z    0.000690   0.000211  -0.000076  -0.000553   0.000594
   40  C  3 XX    0.003094  -0.008344   0.002179   0.004097  -0.004828
   41  C  3 YY   -0.009156   0.012436   0.004610   0.003578   0.005710
   42  C  3 ZZ    0.003745   0.001511  -0.008866  -0.004991   0.002132
   43  C  3 XY    0.003072   0.001821   0.008016   0.017620   0.015944
   44  C  3 XZ   -0.000010   0.000018  -0.000073  -0.000125  -0.000067
   45  C  3 YZ    0.000106  -0.000130  -0.000134  -0.000136   0.000001
   46  C  4  S   -0.032915   0.104641   0.052008   0.055992  -0.013289
   47  C  4  S    0.063145  -0.197155  -0.099454  -0.108022   0.028100
   48  C  4  X    0.065474   0.052143  -0.205446   0.121304   0.064550
   49  C  4  Y   -0.016227  -0.011087  -0.007707   0.056692  -0.178520
   50  C  4  Z    0.000095  -0.000019   0.000358  -0.000464   0.000932
   51  C  4  S    0.037876  -0.171253  -0.085008  -0.081147   0.006459
   52  C  4  X    0.014032  -0.002486  -0.063832  -0.007682   0.041383
   53  C  4  Y   -0.002516   0.009612  -0.009316   0.055299  -0.083930
   54  C  4  Z   -0.001017  -0.000625   0.000066  -0.000001   0.000133
   55  C  4 XX    0.005482  -0.007535  -0.001757   0.006294  -0.001501
   56  C  4 YY    0.001989  -0.005871  -0.008468  -0.009105   0.009769
   57  C  4 ZZ   -0.002706   0.007450   0.004074   0.003036  -0.001451
   58  C  4 XY    0.004766   0.002005  -0.012991   0.009884   0.005824
   59  C  4 XZ   -0.000077  -0.000018   0.000062  -0.000034   0.000000
   60  C  4 YZ   -0.000117   0.000106   0.000179   0.000082  -0.000155
   61  C  5  S   -0.075793  -0.000328   0.079260  -0.103601  -0.005332
   62  C  5  S    0.158083   0.000659  -0.168276   0.227765   0.011027
   63  C  5  X    0.068954   0.117090   0.138978   0.055630   0.036301
   64  C  5  Y   -0.138429  -0.015706   0.087389   0.004884  -0.052064
   65  C  5  Z   -0.000763  -0.000405  -0.000004   0.001124  -0.000720
   66  C  5  S    0.102251   0.000795  -0.141924   0.197668   0.015491
   67  C  5  X    0.004328   0.019027   0.038364   0.033981   0.006714
   68  C  5  Y   -0.032173  -0.006284   0.037231  -0.068512  -0.003293
   69  C  5  Z    0.001066   0.000641   0.000445  -0.000177  -0.000212
   70  C  5 XX    0.014975  -0.000206  -0.006050  -0.001414  -0.002034
   71  C  5 YY   -0.003736  -0.000022   0.001031   0.002340   0.002990
   72  C  5 ZZ   -0.005805   0.000099   0.005916  -0.008024   0.000033
   73  C  5 XY   -0.007325  -0.011087  -0.008629  -0.000263   0.002499
   74  C  5 XZ    0.000012   0.000066   0.000093   0.000116  -0.000014
   75  C  5 YZ   -0.000147  -0.000013   0.000031   0.000127   0.000024
   76  C  6  S    0.087178  -0.132927   0.035634   0.010748  -0.041474
   77  C  6  S   -0.162051   0.246359  -0.063173  -0.017349   0.075477
   78  C  6  X   -0.000873  -0.022531   0.007931  -0.053022  -0.049953
   79  C  6  Y    0.019106   0.011474  -0.069397  -0.090442   0.221286
   80  C  6  Z   -0.000374   0.000346   0.000503   0.000297  -0.001236
   81  C  6  S   -0.154060   0.268600  -0.109756  -0.041775   0.126179
   82  C  6  X    0.003573  -0.014493   0.003215  -0.032462  -0.027950
   83  C  6  Y    0.002953  -0.004125  -0.006589  -0.026687   0.087100
   84  C  6  Z   -0.000407   0.000034  -0.000116   0.000076  -0.000920
   85  C  6 XX   -0.003435   0.007745  -0.005481  -0.001567   0.012324
   86  C  6 YY   -0.004905   0.001784   0.007434   0.007398  -0.016989
   87  C  6 ZZ   -0.003857   0.007347  -0.004806  -0.007322   0.012258
   88  C  6 XY    0.000190   0.001634  -0.000495   0.000200   0.004663
   89  C  6 XZ   -0.000023   0.000050   0.000011   0.000188   0.000056
   90  C  6 YZ    0.000014   0.000079  -0.000117  -0.000135   0.000319
   91  C  7  S   -0.147781  -0.092347  -0.059095   0.037703   0.013368
   92  C  7  S    0.274272   0.171226   0.109948  -0.065626  -0.024992
   93  C  7  X   -0.042952   0.004366   0.087363  -0.141536  -0.059305
   94  C  7  Y    0.016349   0.006651  -0.016274   0.111443   0.008827
   95  C  7  Z    0.000732   0.000835   0.000912   0.001793  -0.003241
   96  C  7  S    0.267039   0.178919   0.135811  -0.126973  -0.030274
   97  C  7  X   -0.009379   0.000075   0.026473  -0.039252  -0.028331
   98  C  7  Y   -0.000459  -0.001651  -0.006905   0.039996   0.003803
   99  C  7  Z   -0.001217  -0.000861  -0.000491   0.000129  -0.000769
  100  C  7 XX    0.008475   0.002469  -0.004220   0.007766   0.002022
  101  C  7 YY    0.005470   0.004000   0.003546  -0.003201  -0.000325
  102  C  7 ZZ    0.006509   0.005849   0.008526  -0.009988  -0.004132
  103  C  7 XY   -0.001618   0.001177   0.006934  -0.014004  -0.003278
  104  C  7 XZ    0.000150  -0.000228  -0.000958  -0.000415   0.000714
  105  C  7 YZ    0.000442  -0.000230  -0.001406  -0.000879   0.001229
  106  H  8  S    0.031007  -0.066510  -0.043327  -0.078924   0.113654
  107  H  8  S    0.012315  -0.011715  -0.022737  -0.034452   0.068150
  108  H  9  S   -0.054148   0.087992  -0.038865  -0.041714   0.075242
  109  H  9  S   -0.011391   0.021539  -0.013779  -0.027666   0.041378
  110  H 10  S   -0.055461   0.103373  -0.042842   0.004472   0.092125
  111  H 10  S   -0.011339   0.029775  -0.024167  -0.002197   0.043661
  112  H 11  S   -0.053817   0.087053  -0.038775  -0.042439   0.074246
  113  H 11  S   -0.011792   0.021476  -0.014020  -0.027843   0.040562
  114  H 12  S    0.093219   0.058933   0.044670  -0.076714  -0.007423
  115  H 12  S    0.018015   0.012522   0.015717  -0.044182  -0.002574
  116  H 13  S    0.085877   0.064797   0.071503  -0.059410  -0.031507
  117  H 13  S    0.015447   0.016640   0.030823  -0.036133  -0.016303
  118  H 14  S    0.091247   0.064265   0.061494  -0.064049  -0.025543
  119  H 14  S    0.018275   0.016825   0.026298  -0.036417  -0.014184
  120  H 15  S    0.015243   0.035967  -0.135811  -0.084814  -0.154909
  121  H 15  S    0.000407   0.010444  -0.047389  -0.043611  -0.065655

                     16         17         18         19         20
                   -0.6524    -0.6291    -0.6167    -0.5926    -0.5899
                     A          A          A          A          A   
    1  O  1  S    0.042815   0.021071   0.001152   0.002738  -0.014604
    2  O  1  S   -0.103141  -0.047488  -0.002865  -0.007074   0.036100
    3  O  1  X    0.037026  -0.160939  -0.000094   0.000261  -0.024404
    4  O  1  Y    0.307133   0.061355   0.008494   0.018515  -0.111316
    5  O  1  Z   -0.003671  -0.001787   0.308356  -0.167905  -0.020318
    6  O  1  S   -0.162733  -0.090551  -0.003403  -0.007919   0.053492
    7  O  1  X    0.029435  -0.104281   0.000824   0.002915  -0.024416
    8  O  1  Y    0.208458   0.044257   0.005845   0.013189  -0.081981
    9  O  1  Z   -0.002567  -0.001139   0.220727  -0.125008  -0.015171
   10  O  1 XX   -0.006974   0.004651   0.000077   0.000034   0.000857
   11  O  1 YY    0.021682   0.005121   0.000532   0.000723  -0.006129
   12  O  1 ZZ   -0.008577  -0.001678  -0.000363  -0.000565   0.003415
   13  O  1 XY    0.003160  -0.013717  -0.000050  -0.000122  -0.000745
   14  O  1 XZ   -0.000065  -0.000009   0.004396  -0.001795  -0.000230
   15  O  1 YZ   -0.000284  -0.000086   0.018296  -0.009660  -0.001158
   16  O  2  S   -0.051311   0.013025  -0.000327   0.002350  -0.033320
   17  O  2  S    0.112926  -0.027559   0.001235  -0.004139   0.077552
   18  O  2  X    0.028803   0.277767   0.003101  -0.017893   0.158296
   19  O  2  Y    0.226111  -0.107396  -0.001056  -0.029424   0.295071
   20  O  2  Z    0.003486  -0.008078   0.107578   0.148614   0.024133
   21  O  2  S    0.208499  -0.062570   0.000750  -0.012898   0.145967
   22  O  2  X    0.014346   0.175005   0.001635  -0.012914   0.104881
   23  O  2  Y    0.126824  -0.060579   0.000002  -0.015624   0.179880
   24  O  2  Z    0.002486  -0.005171   0.072110   0.101386   0.016244
   25  O  2 XX    0.002485  -0.003476   0.000241   0.000119   0.005586
   26  O  2 YY   -0.017304   0.008685   0.000420   0.002451  -0.018237
   27  O  2 ZZ    0.001753  -0.000576  -0.000063  -0.000303   0.005720
   28  O  2 XY   -0.001517  -0.017740  -0.000193   0.001553  -0.012847
   29  O  2 XZ   -0.000051  -0.000272  -0.001120  -0.000474  -0.000291
   30  O  2 YZ   -0.000384   0.000603  -0.009664  -0.013787  -0.002331
   31  C  3  S   -0.002293  -0.008885   0.000162   0.003099  -0.019722
   32  C  3  S    0.007784   0.023477  -0.000064  -0.005139   0.040388
   33  C  3  X   -0.209111   0.121276  -0.000129  -0.004611   0.041113
   34  C  3  Y    0.049520  -0.047260  -0.001699  -0.018971   0.103150
   35  C  3  Z   -0.001313  -0.002139   0.194050  -0.069480  -0.009705
   36  C  3  S   -0.029658   0.010856  -0.005820  -0.033098   0.103729
   37  C  3  X   -0.078813   0.031464  -0.001950  -0.011371   0.020423
   38  C  3  Y    0.032179  -0.015937   0.005143   0.008495   0.019573
   39  C  3  Z   -0.000553  -0.001858   0.091615  -0.030217  -0.003581
   40  C  3 XX    0.007447  -0.001639  -0.000056   0.001011  -0.008131
   41  C  3 YY   -0.000184  -0.002504  -0.000200  -0.001321   0.007188
   42  C  3 ZZ   -0.002019   0.001875   0.000123   0.000239  -0.000208
   43  C  3 XY    0.001066  -0.020991  -0.000345  -0.000559   0.002319
   44  C  3 XZ   -0.000047   0.000116  -0.004267   0.006230   0.000717
   45  C  3 YZ   -0.000010   0.000073  -0.002104   0.000321   0.000027
   46  C  4  S   -0.024209  -0.030632  -0.001232  -0.004541   0.020384
   47  C  4  S    0.040257   0.057098   0.002706   0.008855  -0.036257
   48  C  4  X    0.124750  -0.185822  -0.001977  -0.002938   0.010652
   49  C  4  Y   -0.184131  -0.141026  -0.005152  -0.009772   0.046268
   50  C  4  Z   -0.000191  -0.000475   0.111943   0.010378   0.000229
   51  C  4  S    0.140524   0.073280   0.004238   0.022849  -0.086985
   52  C  4  X    0.057178  -0.069116  -0.008691  -0.026439   0.022780
   53  C  4  Y   -0.070870  -0.075898  -0.002365   0.000924   0.000031
   54  C  4  Z   -0.000771   0.000880   0.067604   0.005084  -0.000589
   55  C  4 XX   -0.004458  -0.006022   0.000024   0.000025   0.003842
   56  C  4 YY    0.012783   0.008364   0.000474   0.001180  -0.007525
   57  C  4 ZZ   -0.002581  -0.001573  -0.000012  -0.000098   0.001815
   58  C  4 XY    0.003920  -0.012546  -0.000357   0.000189  -0.005370
   59  C  4 XZ    0.000011   0.000152  -0.005595   0.006074   0.000732
   60  C  4 YZ   -0.000205  -0.000226   0.006366   0.000615   0.000083
   61  C  5  S    0.031652   0.002562   0.000586   0.001860  -0.006267
   62  C  5  S   -0.071208  -0.002808  -0.002445  -0.006648   0.006638
   63  C  5  X   -0.030446   0.272032   0.004286  -0.018648   0.167931
   64  C  5  Y   -0.141642   0.072803  -0.001084   0.027395  -0.275712
   65  C  5  Z   -0.003088  -0.003965   0.107757   0.152000   0.015503
   66  C  5  S   -0.072992  -0.016498   0.006471   0.010758   0.072794
   67  C  5  X    0.008455   0.085486   0.001122  -0.006796   0.056889
   68  C  5  Y   -0.003987   0.013708  -0.004354  -0.004298  -0.051042
   69  C  5  Z   -0.001630  -0.002574   0.050982   0.070439   0.008229
   70  C  5 XX   -0.000455  -0.000930  -0.000145  -0.002068   0.015415
   71  C  5 YY    0.000460   0.000295  -0.000549   0.000104  -0.012585
   72  C  5 ZZ    0.004137  -0.001319   0.000427   0.000519   0.003186
   73  C  5 XY    0.004691   0.007136  -0.000002   0.000420  -0.004935
   74  C  5 XZ   -0.000129  -0.000089  -0.000308   0.008380   0.001207
   75  C  5 YZ    0.000093  -0.000450   0.003799   0.004563   0.000268
   76  C  6  S    0.013740  -0.005683  -0.000006   0.000698  -0.003526
   77  C  6  S   -0.027773   0.008029   0.000186  -0.001623   0.011549
   78  C  6  X   -0.130739  -0.099447  -0.004289  -0.034348   0.191850
   79  C  6  Y   -0.086115   0.023698   0.004379   0.012501  -0.079352
   80  C  6  Z   -0.000492  -0.004462   0.275744  -0.131522  -0.013052
   81  C  6  S   -0.047880   0.020216  -0.002586  -0.007400   0.002133
   82  C  6  X   -0.052735  -0.056428  -0.003089  -0.015895   0.102890
   83  C  6  Y   -0.051730   0.006053   0.003290   0.006649  -0.026609
   84  C  6  Z    0.000591  -0.001668   0.162744  -0.086705  -0.009841
   85  C  6 XX    0.005543   0.006931  -0.000560   0.003585  -0.017440
   86  C  6 YY    0.003793  -0.003593  -0.000215  -0.001726   0.009568
   87  C  6 ZZ   -0.012868  -0.003962   0.000712  -0.001665   0.007605
   88  C  6 XY   -0.000175  -0.004175  -0.000083  -0.000727   0.003728
   89  C  6 XZ    0.000478   0.000141   0.015151  -0.006558  -0.001437
   90  C  6 YZ   -0.000096  -0.000107   0.008405  -0.004740  -0.000561
   91  C  7  S    0.004602   0.011124   0.000251  -0.000535   0.006429
   92  C  7  S   -0.011654  -0.017214  -0.000095   0.001199  -0.007312
   93  C  7  X   -0.050247  -0.022659  -0.000304   0.026736  -0.225162
   94  C  7  Y   -0.082864   0.206968   0.004193  -0.008203   0.104473
   95  C  7  Z   -0.010034  -0.008868   0.134754   0.358267   0.044879
   96  C  7  S   -0.009373  -0.037121  -0.005081  -0.008722  -0.023629
   97  C  7  X   -0.038770  -0.003726   0.000173   0.012711  -0.111640
   98  C  7  Y   -0.041661   0.105168   0.001852  -0.005261   0.047983
   99  C  7  Z    0.000364  -0.003483   0.069653   0.195300   0.026468
  100  C  7 XX   -0.000598   0.006344  -0.002116  -0.007117   0.008582
  101  C  7 YY    0.002072  -0.004985  -0.005280  -0.013906  -0.005165
  102  C  7 ZZ   -0.003105  -0.004195   0.007196   0.021063  -0.008505
  103  C  7 XY    0.001665  -0.008111  -0.003797  -0.008529  -0.014535
  104  C  7 XZ    0.002953  -0.005538   0.003309   0.012189   0.002767
  105  C  7 YZ    0.005090  -0.008341   0.000294  -0.000839   0.001490
  106  H  8  S    0.132467   0.104071   0.004519   0.009919  -0.051057
  107  H  8  S    0.075791   0.056164   0.002090   0.006247  -0.040896
  108  H  9  S   -0.063134  -0.019608   0.136746  -0.071135   0.024168
  109  H  9  S   -0.029655  -0.020555   0.083937  -0.037921   0.023926
  110  H 10  S    0.053741   0.073476  -0.000247   0.026017  -0.135399
  111  H 10  S    0.057126   0.058258  -0.000430   0.023051  -0.114785
  112  H 11  S   -0.064468  -0.017472  -0.134716   0.057555   0.041043
  113  H 11  S   -0.030142  -0.018465  -0.082769   0.027181   0.032236
  114  H 12  S    0.050103  -0.118037  -0.035914  -0.088057  -0.057543
  115  H 12  S    0.040082  -0.077547  -0.024493  -0.062566  -0.046133
  116  H 13  S   -0.043204   0.039947  -0.044052  -0.113388  -0.090467
  117  H 13  S   -0.017765   0.029022  -0.029838  -0.078696  -0.057979
  118  H 14  S   -0.015247  -0.034615   0.077607   0.221435  -0.035430
  119  H 14  S   -0.009274  -0.021790   0.054947   0.160850  -0.026750
  120  H 15  S    0.055224   0.089274   0.002945   0.005218  -0.022878
  121  H 15  S    0.023126   0.055853   0.001532   0.003955  -0.019466

                     21         22         23         24         25
                   -0.5490    -0.5412    -0.5368    -0.5185    -0.4873
                     A          A          A          A          A   
    1  O  1  S    0.000196   0.009313  -0.004318   0.029012   0.000330
    2  O  1  S   -0.000571  -0.025363   0.011230  -0.067167  -0.000450
    3  O  1  X    0.004718   0.048486   0.049805   0.024939   0.001851
    4  O  1  Y    0.004658   0.189530  -0.013293   0.348761   0.007286
    5  O  1  Z    0.459123  -0.005009  -0.003880  -0.004412  -0.057723
    6  O  1  S   -0.000510  -0.020627   0.010919  -0.123164  -0.003091
    7  O  1  X    0.003923   0.036179   0.034685   0.026251   0.000366
    8  O  1  Y    0.003637   0.140078  -0.009350   0.268136   0.006041
    9  O  1  Z    0.348590  -0.003448  -0.002554  -0.003400  -0.052004
   10  O  1 XX   -0.000027  -0.004048  -0.000662   0.005124   0.000059
   11  O  1 YY    0.000286   0.011262  -0.001191   0.017339   0.000487
   12  O  1 ZZ   -0.000287  -0.004875   0.000758  -0.007519  -0.000059
   13  O  1 XY    0.000284   0.002626   0.003538  -0.002796   0.000003
   14  O  1 XZ    0.002601  -0.000037   0.000037  -0.000096   0.000188
   15  O  1 YZ    0.023663  -0.000253  -0.000158  -0.000194  -0.003187
   16  O  2  S   -0.000487   0.014320  -0.019069   0.000653  -0.000011
   17  O  2  S    0.001201  -0.029565   0.041129  -0.002508  -0.002150
   18  O  2  X   -0.000739  -0.078510  -0.057135  -0.017980  -0.002047
   19  O  2  Y    0.006143  -0.053142   0.239275   0.044207  -0.003894
   20  O  2  Z   -0.030771  -0.005529  -0.010022  -0.009480   0.433049
   21  O  2  S    0.001864  -0.063965   0.098472   0.008467   0.008077
   22  O  2  X   -0.000780  -0.049899  -0.040381  -0.016420  -0.000283
   23  O  2  Y    0.004209  -0.032067   0.153804   0.026813  -0.006444
   24  O  2  Z   -0.022330  -0.004272  -0.008211  -0.006930   0.318059
   25  O  2 XX    0.000154   0.001787   0.004753   0.000353  -0.000652
   26  O  2 YY   -0.000414   0.004663  -0.016156  -0.002310   0.000276
   27  O  2 ZZ    0.000198   0.000707   0.002570   0.000600  -0.001969
   28  O  2 XY    0.000065   0.004094   0.004401  -0.000520  -0.000127
   29  O  2 XZ    0.000674   0.000077   0.000031   0.000092  -0.002836
   30  O  2 YZ    0.001722   0.000372   0.000772   0.000841  -0.033693
   31  C  3  S    0.000168   0.015564   0.009658  -0.000271  -0.000129
   32  C  3  S   -0.000057  -0.040260  -0.018388   0.005012  -0.000287
   33  C  3  X   -0.000351  -0.149248   0.000009   0.069604   0.002344
   34  C  3  Y   -0.002012   0.025860  -0.054324  -0.317942  -0.007642
   35  C  3  Z    0.080664  -0.000632   0.000531   0.001186   0.024024
   36  C  3  S   -0.003462  -0.012736  -0.055250  -0.072092   0.008379
   37  C  3  X   -0.000701  -0.028856  -0.016285   0.020166   0.005410
   38  C  3  Y    0.000271   0.046894  -0.032507  -0.088335  -0.009388
   39  C  3  Z    0.063905  -0.001962  -0.001862  -0.000034   0.030640
   40  C  3 XX    0.000133   0.000709   0.008671   0.024239   0.001087
   41  C  3 YY   -0.000455   0.003246  -0.008358  -0.026936  -0.000877
   42  C  3 ZZ    0.000319  -0.001160   0.000065  -0.000795  -0.000171
   43  C  3 XY    0.000125   0.014773   0.003127   0.007806   0.000442
   44  C  3 XZ   -0.014068  -0.000103  -0.000006  -0.000319   0.008179
   45  C  3 YZ   -0.019285  -0.000008   0.000376   0.000499  -0.002853
   46  C  4  S    0.000005  -0.006143  -0.017464  -0.001713   0.000022
   47  C  4  S   -0.000110   0.013649   0.035124   0.004192  -0.000163
   48  C  4  X    0.001428   0.096440   0.092656  -0.132885  -0.000289
   49  C  4  Y    0.003277  -0.167355   0.164425   0.156444   0.011216
   50  C  4  Z    0.032904   0.001616  -0.003260  -0.004825   0.101669
   51  C  4  S    0.002006   0.012035   0.065144   0.026240  -0.007312
   52  C  4  X   -0.000590   0.028445   0.037028  -0.060975   0.011126
   53  C  4  Y    0.002754  -0.112254   0.096462   0.093520   0.004561
   54  C  4  Z    0.016565   0.003357   0.000864  -0.003931   0.056415
   55  C  4 XX    0.000271  -0.007399   0.009097   0.014596   0.000312
   56  C  4 YY   -0.000314   0.015194  -0.011791  -0.020073  -0.001010
   57  C  4 ZZ   -0.000008  -0.000264  -0.000536   0.000216  -0.000179
   58  C  4 XY    0.000059   0.005260   0.007140  -0.001790   0.000310
   59  C  4 XZ   -0.003431   0.000088  -0.000265  -0.000177   0.003023
   60  C  4 YZ    0.000323  -0.000242  -0.000195   0.000021   0.006159
   61  C  5  S   -0.000126   0.003289  -0.003744  -0.011508   0.000177
   62  C  5  S    0.000050  -0.007297   0.002345   0.025910   0.001076
   63  C  5  X   -0.001422  -0.032053  -0.126021   0.042238  -0.001053
   64  C  5  Y   -0.004323   0.053255  -0.176592  -0.054631  -0.007917
   65  C  5  Z   -0.006238  -0.000653  -0.012940  -0.008807   0.253913
   66  C  5  S    0.002059   0.010475   0.049162   0.028838  -0.013707
   67  C  5  X    0.000464  -0.032980  -0.044707   0.034168  -0.003715
   68  C  5  Y   -0.000515   0.005602  -0.038313  -0.022127  -0.006249
   69  C  5  Z   -0.008502  -0.001158  -0.006060  -0.004725   0.182009
   70  C  5 XX    0.000321   0.000011   0.021777   0.004253   0.001132
   71  C  5 YY   -0.000297  -0.000894  -0.019832  -0.004313  -0.001369
   72  C  5 ZZ    0.000045  -0.000128   0.003425   0.000514   0.000696
   73  C  5 XY   -0.000058   0.002238   0.004373  -0.009529   0.000132
   74  C  5 XZ   -0.000437  -0.000415  -0.000846   0.000257  -0.006727
   75  C  5 YZ   -0.003101  -0.001090  -0.002235  -0.000444   0.031562
   76  C  6  S    0.000115  -0.004902   0.009516   0.016747   0.000315
   77  C  6  S   -0.000511   0.013756  -0.021115  -0.036104  -0.001150
   78  C  6  X   -0.000730   0.297629  -0.164019   0.059138   0.002772
   79  C  6  Y   -0.000015   0.031111   0.040193   0.306792   0.007976
   80  C  6  Z   -0.304305  -0.001523   0.006671   0.001869  -0.080506
   81  C  6  S    0.000336  -0.000600  -0.029976  -0.062845   0.002495
   82  C  6  X   -0.000180   0.151251  -0.074159   0.030889   0.002030
   83  C  6  Y   -0.000103   0.032263   0.006856   0.156479   0.002804
   84  C  6  Z   -0.173518  -0.001069   0.006062   0.001855  -0.075499
   85  C  6 XX    0.001221  -0.022875   0.015081   0.004755   0.000257
   86  C  6 YY   -0.000369   0.003458  -0.005549  -0.017158  -0.000462
   87  C  6 ZZ   -0.000769   0.018789  -0.008463   0.015622   0.000244
   88  C  6 XY    0.000028   0.014202  -0.005062   0.006293   0.000231
   89  C  6 XZ   -0.017687  -0.001393   0.001089  -0.000232  -0.003264
   90  C  6 YZ   -0.018208  -0.000099   0.000423   0.000543  -0.005188
   91  C  7  S   -0.000074   0.002097  -0.003233  -0.005530  -0.000656
   92  C  7  S    0.000229  -0.002684   0.007269   0.013041  -0.000205
   93  C  7  X    0.000265   0.164170   0.168698  -0.112231   0.004839
   94  C  7  Y    0.002896   0.162554   0.261263  -0.027448   0.010372
   95  C  7  Z    0.016916   0.005698  -0.004193  -0.000216  -0.206090
   96  C  7  S   -0.000465  -0.006365   0.009938   0.008657   0.011388
   97  C  7  X   -0.000765   0.093486   0.098027  -0.058501   0.011701
   98  C  7  Y   -0.000190   0.092612   0.142022  -0.023817   0.018032
   99  C  7  Z    0.012926   0.001386  -0.006900  -0.000902  -0.143268
  100  C  7 XX   -0.000129   0.004966   0.013073   0.000093   0.004388
  101  C  7 YY   -0.000972  -0.010477  -0.019130   0.003057   0.008385
  102  C  7 ZZ    0.001045   0.006299   0.005833  -0.003678  -0.012776
  103  C  7 XY   -0.000545   0.005140   0.004825  -0.005408   0.006604
  104  C  7 XZ    0.000705  -0.007766  -0.011260   0.003213  -0.015843
  105  C  7 YZ   -0.000431  -0.012536  -0.017730   0.004573   0.005729
  106  H  8  S   -0.002167   0.118617  -0.097801  -0.118416  -0.007211
  107  H  8  S   -0.001564   0.075791  -0.082606  -0.113382  -0.006017
  108  H  9  S   -0.164826   0.092863  -0.036250   0.086734  -0.038979
  109  H  9  S   -0.127543   0.071664  -0.018536   0.077132  -0.003751
  110  H 10  S    0.004869  -0.195960   0.111344   0.000765   0.000338
  111  H 10  S    0.003418  -0.177886   0.110348   0.018261   0.000987
  112  H 11  S    0.161731   0.100732  -0.046610   0.084401   0.043122
  113  H 11  S    0.126141   0.078504  -0.024403   0.076783   0.006704
  114  H 12  S   -0.006541  -0.118632  -0.183069   0.031352   0.053579
  115  H 12  S   -0.006277  -0.094321  -0.162652   0.020953   0.051923
  116  H 13  S   -0.004906   0.122619   0.166265  -0.057216   0.086866
  117  H 13  S   -0.001454   0.094348   0.135204  -0.049070   0.056614
  118  H 14  S    0.010675   0.027583   0.020784  -0.018131  -0.142226
  119  H 14  S    0.007116   0.023792   0.018038  -0.017688  -0.117321
  120  H 15  S    0.000196   0.022651  -0.021392   0.092216   0.001223
  121  H 15  S    0.000490  -0.006938  -0.008256   0.050861   0.000680

                     26         27         28         29         30
                   -0.4008    -0.3448     0.1182     0.2059     0.2400
                     A          A          A          A          A   
    1  O  1  S   -0.007309  -0.000030  -0.000115   0.073488  -0.010665
    2  O  1  S    0.019943   0.000397  -0.000591  -0.060009   0.023706
    3  O  1  X    0.048933  -0.001495  -0.000430   0.166328   0.027391
    4  O  1  Y    0.030023  -0.001696  -0.001413  -0.147522   0.028502
    5  O  1  Z    0.000348  -0.240387  -0.155059   0.000242  -0.075363
    6  O  1  S    0.023232  -0.002089   0.005928  -0.994771   0.086250
    7  O  1  X    0.029780  -0.002137   0.001436   0.360274   0.025992
    8  O  1  Y    0.022232  -0.002043  -0.001188  -0.342203   0.039301
    9  O  1  Z    0.000592  -0.227809  -0.204080   0.000079  -0.098867
   10  O  1 XX   -0.002020   0.000093  -0.000208   0.037880  -0.004719
   11  O  1 YY    0.002641  -0.000027  -0.000105   0.025048   0.002068
   12  O  1 ZZ    0.000852   0.000083  -0.000358   0.044004  -0.000526
   13  O  1 XY    0.003257  -0.000026   0.000167   0.009012  -0.000825
   14  O  1 XZ   -0.000007   0.007188   0.012968  -0.000010   0.005900
   15  O  1 YZ    0.000024  -0.009267   0.001976   0.000002   0.007120
   16  O  2  S    0.001002   0.000396  -0.000449   0.009801   0.005251
   17  O  2  S    0.003302   0.000771  -0.003160  -0.016633  -0.027483
   18  O  2  X    0.536317   0.002842   0.003942   0.035636  -0.010127
   19  O  2  Y   -0.036865   0.004193  -0.000840  -0.005869   0.014682
   20  O  2  Z   -0.002732  -0.214086   0.261137   0.000478  -0.145216
   21  O  2  S   -0.028461  -0.010983   0.024162  -0.088448   0.032621
   22  O  2  X    0.429640   0.000501   0.007655   0.050007  -0.014331
   23  O  2  Y   -0.020610   0.006129  -0.008542   0.023926   0.003313
   24  O  2  Z   -0.000522  -0.183476   0.329275   0.000634  -0.224254
   25  O  2 XX   -0.001448   0.000558  -0.001735   0.003385  -0.000926
   26  O  2 YY    0.003136  -0.000052  -0.000768  -0.000447  -0.005290
   27  O  2 ZZ    0.002092   0.000942  -0.001067   0.004596  -0.005468
   28  O  2 XY   -0.018989   0.000123  -0.000645  -0.002002   0.000095
   29  O  2 XZ   -0.000328   0.000294   0.001233  -0.000066   0.004762
   30  O  2 YZ   -0.000203   0.012235  -0.001055  -0.000212  -0.007986
   31  C  3  S    0.012004  -0.000198   0.001034  -0.003194   0.000917
   32  C  3  S   -0.027002   0.000930  -0.003030  -0.012989   0.001703
   33  C  3  X   -0.042027   0.001851  -0.002419  -0.056549   0.045410
   34  C  3  Y    0.009138   0.002333   0.004467  -0.059284   0.037839
   35  C  3  Z   -0.000505   0.280998   0.364398  -0.001108   0.189227
   36  C  3  S   -0.002314   0.001331  -0.010001  -0.008503  -0.023722
   37  C  3  X   -0.018504  -0.001806   0.002562  -0.089280   0.002433
   38  C  3  Y   -0.028321  -0.003281   0.019876  -0.124660   0.004277
   39  C  3  Z   -0.000638   0.200089   0.522422  -0.003485   0.279524
   40  C  3 XX    0.006892   0.000209   0.000195  -0.012236   0.006758
   41  C  3 YY   -0.004807  -0.000089   0.000156   0.004123  -0.003593
   42  C  3 ZZ    0.000037  -0.000054  -0.000266   0.003762  -0.002000
   43  C  3 XY    0.009885   0.000304  -0.000315   0.003098   0.011031
   44  C  3 XZ   -0.000277   0.032998  -0.001849  -0.000031  -0.015761
   45  C  3 YZ    0.000026  -0.007587   0.006368   0.000123   0.017508
   46  C  4  S   -0.031473   0.000137  -0.001026   0.019976   0.019764
   47  C  4  S    0.064033  -0.000746   0.001706  -0.044048  -0.024264
   48  C  4  X    0.176877   0.000307  -0.000431   0.034572   0.008431
   49  C  4  Y    0.131372   0.003995  -0.004961  -0.016659   0.080743
   50  C  4  Z   -0.002277   0.392523  -0.130541   0.000231  -0.216108
   51  C  4  S    0.152128   0.010626  -0.016432  -0.136707  -0.292747
   52  C  4  X    0.153326   0.010212  -0.030101  -0.036244   0.073660
   53  C  4  Y    0.086927   0.008942  -0.026918  -0.016540   0.383811
   54  C  4  Z   -0.001093   0.358315  -0.284380   0.001790  -0.470709
[...]
             27  O  2 ZZ     -0.00036     0.17040
             28  O  2 XY      0.00665     0.01515
             29  O  2 XZ      0.00018     0.00031
             30  O  2 YZ      0.01300     0.01474
             31  C  3  S      1.99681     1.97731
             32  C  3  S      0.69351     0.35358
             33  C  3  X      0.70304     0.61823
             34  C  3  Y      0.71300     0.62931
             35  C  3  Z      0.45809     0.40736
             36  C  3  S      0.35861     0.26439
             37  C  3  X      0.11059     0.26799
             38  C  3  Y      0.12212     0.30793
             39  C  3  Z      0.31602     0.38756
             40  C  3 XX      0.02610     0.19380
             41  C  3 YY      0.02285     0.17599
             42  C  3 ZZ     -0.02048     0.09898
             43  C  3 XY      0.02972     0.05184
             44  C  3 XZ      0.02053     0.04120
             45  C  3 YZ      0.00808     0.01565
             46  C  4  S      1.99647     1.97920
             47  C  4  S      0.64548     0.35043
             48  C  4  X      0.72236     0.64578
             49  C  4  Y      0.71253     0.63870
             50  C  4  Z      0.63682     0.60282
             51  C  4  S      0.53143     0.30164
             52  C  4  X      0.17489     0.31335
             53  C  4  Y      0.34731     0.41622
             54  C  4  Z      0.58373     0.58668
             55  C  4 XX      0.02328     0.18522
             56  C  4 YY      0.02910     0.17468
             57  C  4 ZZ     -0.01630     0.10533
             58  C  4 XY      0.01233     0.02269
             59  C  4 XZ      0.00434     0.00794
             60  C  4 YZ      0.00256     0.00334
             61  C  5  S      1.99698     1.97389
             62  C  5  S      0.69516     0.35441
             63  C  5  X      0.73073     0.63328
             64  C  5  Y      0.73244     0.65007
             65  C  5  Z      0.39271     0.34934
             66  C  5  S      0.37788     0.26825
             67  C  5  X      0.13994     0.32371
             68  C  5  Y      0.03504     0.26999
             69  C  5  Z      0.25576     0.32741
             70  C  5 XX      0.01504     0.16276
             71  C  5 YY      0.03717     0.21046
             72  C  5 ZZ     -0.02292     0.09692
             73  C  5 XY      0.04931     0.10466
             74  C  5 XZ      0.00623     0.01250
             75  C  5 YZ      0.02274     0.04244
             76  C  6  S      1.99662     1.98060
             77  C  6  S      0.63150     0.35192
             78  C  6  X      0.70193     0.63151
             79  C  6  Y      0.67037     0.61091
             80  C  6  Z      0.72284     0.65658
             81  C  6  S      0.64790     0.32682
             82  C  6  X      0.36145     0.47914
             83  C  6  Y      0.26243     0.39409
             84  C  6  Z      0.45126     0.51318
             85  C  6 XX      0.02303     0.15775
             86  C  6 YY      0.01588     0.15729
             87  C  6 ZZ      0.02184     0.15769
             88  C  6 XY      0.00463     0.00857
             89  C  6 XZ      0.00681     0.00931
             90  C  6 YZ      0.00881     0.01514
             91  C  7  S      1.99664     1.98071
             92  C  7  S      0.63190     0.35502
             93  C  7  X      0.68978     0.62951
             94  C  7  Y      0.70742     0.64128
             95  C  7  Z      0.69597     0.62785
             96  C  7  S      0.65899     0.32933
             97  C  7  X      0.32658     0.43182
             98  C  7  Y      0.38256     0.46202
             99  C  7  Z      0.40563     0.50331
            100  C  7 XX      0.01700     0.15686
            101  C  7 YY      0.01293     0.14878
            102  C  7 ZZ      0.02059     0.15738
            103  C  7 XY      0.01390     0.02085
            104  C  7 XZ      0.00107     0.00206
            105  C  7 YZ      0.01427     0.02184
            106  H  8  S      0.52307     0.48632
            107  H  8  S      0.27434     0.34284
            108  H  9  S      0.51667     0.47911
            109  H  9  S      0.25929     0.33019
            110  H 10  S      0.53175     0.49762
            111  H 10  S      0.32242     0.35991
            112  H 11  S      0.51612     0.47897
            113  H 11  S      0.25335     0.32732
            114  H 12  S      0.52067     0.48424
            115  H 12  S      0.29685     0.34868
            116  H 13  S      0.52184     0.48572
            117  H 13  S      0.27568     0.34148
            118  H 14  S      0.52029     0.48434
            119  H 14  S      0.29655     0.34849
            120  H 15  S      0.46491     0.43091
            121  H 15  S      0.07226     0.19195

          ----- MULLIKEN ATOMIC OVERLAP POPULATIONS -----
          (OFF-DIAGONAL ELEMENTS NEED TO BE MULTIPLIED BY 2)

             1           2           3           4           5

    1    8.2810916
    2    0.0000352   8.1652626
    3    0.2894381  -0.0049674   4.4428906
    4   -0.0611929  -0.0860181   0.6414140   5.3609606
    5    0.0005953   0.5749139  -0.0265805   0.3590708   4.3133120
    6   -0.0579848  -0.0046441   0.3648532  -0.0742276   0.0005980
    7   -0.0000486  -0.0733938   0.0017717  -0.1199324   0.3623627
    8   -0.0009199   0.0022322  -0.0298643   0.3752294  -0.0247744
    9    0.0017710   0.0018352  -0.0264036  -0.0054959   0.0004929
   10   -0.0037402   0.0007152  -0.0436188   0.0050099  -0.0001403
   11    0.0019263   0.0029799  -0.0248210  -0.0052235   0.0003291
   12    0.0000001   0.0013820  -0.0001224   0.0028403  -0.0303108
   13    0.0000002   0.0043821  -0.0000266   0.0054441  -0.0356414
   14    0.0000004   0.0012512  -0.0000997   0.0025260  -0.0299171
   15    0.2653150   0.0000134  -0.0252678   0.0059197  -0.0001013

             6           7           8           9          10

    6    5.1570206
    7    0.0001467   5.2696361
    8    0.0033357   0.0005630   0.4719002
    9    0.3849352   0.0000145  -0.0000903   0.4632203
   10    0.3733831   0.0000080  -0.0000721  -0.0254718   0.5651674
   11    0.3842567   0.0000372  -0.0000724  -0.0189296  -0.0242990
   12   -0.0000026   0.3750025  -0.0000061   0.0000008  -0.0000002
   13   -0.0000000   0.3840794   0.0000033  -0.0000002  -0.0000001
   14   -0.0000063   0.3749813  -0.0000198  -0.0000038  -0.0000002
   15   -0.0043671   0.0000045  -0.0000277   0.0000803   0.0072317

            11          12          13          14          15

   11    0.4531928
   12   -0.0000068   0.5140178
   13   -0.0000000  -0.0195642   0.4783578
   14    0.0000010  -0.0257122  -0.0195082   0.5133530
   15    0.0001026  -0.0000001  -0.0000000  -0.0000001   0.2882648

          TOTAL MULLIKEN AND LOWDIN ATOMIC POPULATIONS
       ATOM         MULL.POP.    CHARGE          LOW.POP.     CHARGE
    1 O             8.716287   -0.716287         8.418885   -0.418885
    2 O             8.585980   -0.585980         8.338692   -0.338692
    3 C             5.558595    0.441405         5.791124    0.208876
    4 C             6.406324   -0.406324         6.333997   -0.333997
    5 C             5.464209    0.535791         5.780085    0.219915
    6 C             6.527297   -0.527297         6.450501   -0.450501
    7 C             6.575233   -0.575233         6.468629   -0.468629
    8 H             0.797417    0.202583         0.829169    0.170831
    9 H             0.775955    0.224045         0.809300    0.190700
   10 H             0.854173    0.145827         0.857531    0.142469
   11 H             0.769473    0.230527         0.806285    0.193715
   12 H             0.817518    0.182482         0.832910    0.167090
   13 H             0.797526    0.202474         0.827199    0.172801
   14 H             0.816846    0.183154         0.832829    0.167171
   15 H             0.537168    0.462832         0.622864    0.377136

          -------------------------------
          BOND ORDER AND VALENCE ANALYSIS     BOND ORDER THRESHOLD=0.050
          -------------------------------

                   BOND                       BOND                       BOND
  ATOM PAIR DIST  ORDER      ATOM PAIR DIST  ORDER      ATOM PAIR DIST  ORDER
    1   3  1.342  0.972        1  15  0.946  0.743        2   5  1.203  1.783
    3   4  1.336  1.775        3   6  1.506  0.990        4   5  1.468  1.033
    4   8  1.075  0.934        5   7  1.514  0.958        6   9  1.082  0.929
    6  10  1.086  0.949        6  11  1.080  0.927        7  12  1.086  0.945
    7  13  1.081  0.953        7  14  1.086  0.945

                       TOTAL       BONDED        FREE
      ATOM            VALENCE     VALENCE     VALENCE
    1 O                 1.769       1.769       0.000
    2 O                 1.876       1.876       0.000
    3 C                 3.764       3.764       0.000
    4 C                 3.733       3.733      -0.000
    5 C                 3.763       3.763       0.000
    6 C                 3.775       3.775      -0.000
    7 C                 3.765       3.765       0.000
    8 H                 0.929       0.929      -0.000
    9 H                 0.918       0.918      -0.000
   10 H                 0.936       0.936       0.000
   11 H                 0.918       0.918      -0.000
   12 H                 0.928       0.928      -0.000
   13 H                 0.931       0.931       0.000
   14 H                 0.928       0.928      -0.000
   15 H                 0.763       0.763       0.000

          ---------------------
          ELECTROSTATIC MOMENTS
          ---------------------

 POINT   1           X           Y           Z (BOHR)    CHARGE
                 0.031839    0.022121   -0.001030        0.00 (A.U.)
         DX          DY          DZ         /D/  (DEBYE)
    -2.438991   -0.703108    0.125644    2.541421
 ...... END OF PROPERTY EVALUATION ......
 STEP CPU TIME =     0.04 TOTAL CPU TIME =        193.4 (      3.2 MIN)
 TOTAL WALL CLOCK TIME=        198.8 SECONDS, CPU UTILIZATION IS    97.27%
  $VIB   
          IVIB=   0 IATOM=   0 ICOORD=   0 E=     -343.7050890451
 -3.895989674E-04-5.265274360E-05 1.643893147E-05-5.675477833E-05-9.377158412E-06
  1.586239035E-05 1.306665648E-04 2.467562622E-05 7.073409190E-06-1.471744542E-05
  1.470198697E-04-7.864981442E-05-2.266252785E-05-1.661370842E-04 4.238711418E-05
  2.362779645E-05 1.297527721E-04 5.248017674E-05-7.864208629E-05 3.234437656E-04
 -2.044493484E-04 2.186758543E-05-2.987033252E-05 1.168457880E-05 6.834054094E-05
 -1.823150119E-05 3.953758979E-05-7.836324353E-05 5.484148015E-05 2.549045364E-05
  7.512746658E-05-2.455527947E-05-1.168794083E-04 5.570137491E-06-1.213580419E-04
  7.118939681E-05-3.347198642E-05-4.580638682E-05 9.435385561E-05 8.993922178E-05
 -6.080101335E-05 3.352201122E-05 2.590717237E-04-1.509439765E-04-1.004133640E-05
 -2.438990560E+00-7.031079090E-01 1.256435426E-01
 ......END OF GEOMETRY SEARCH......
 STEP CPU TIME =     0.00 TOTAL CPU TIME =        193.4 (      3.2 MIN)
 TOTAL WALL CLOCK TIME=        198.8 SECONDS, CPU UTILIZATION IS    97.26%
               1145677  WORDS OF DYNAMIC MEMORY USED
 EXECUTION OF GAMESS TERMINATED NORMALLY Thu Apr 30 06:33:09 2026
 DDI: 263640 bytes (0.3 MB / 0 MWords) used by master data server.

 ----------------------------------------
 CPU timing information for all processes
 ========================================
 0: 192.381 + 0.997 = 193.379
 ----------------------------------------
 ddikick.x: exited gracefully.
----- accounting info -----
Files used on the master node chemcompute-node-0.novalocal were:
-rw-r--r--. 1 chemcomp chemcomp     1197 Apr 30 06:29 /scratch/1118315/1594877.F05
-rw-rw-r--. 1 chemcomp chemcomp 55705600 Apr 30 06:33 /scratch/1118315/1594877.F10
Thu Apr 30 06:33:12 UTC 2026
0.081u 0.039s 3:22.12 0.0%	0+0k 8+216io 0pf+0w
Finishing Up...
Wrote IR file to: Gamess.ir
vibramans not found, parsing from GAMESS output
Wrote Raman file to: Gamess.raman
Wrote UV-Vis file to: Gamess.uvvis
Wrote Electronic Energy file to: Gamess.energy
Wrote Geometry Optimization file to: Gamess.molden
Wrote Atomic Charges file to: Gamess.charges
Wrote Dipole Moment file to: Gamess.moments
Wrote all Results to: Gamess.cclib
reading wave-function from mo.molden
Loading data from molden type file mo.molden

Converting the regular grid to a vector grid containing 2.07e+05 grid points...

Starting the calculation of the molecular orbitals...
The grid has been separated into 21 slices each having 1.00e+04 grid points.
The calculation will be carried out using only one process.

	The number of subprocesses can be changed with -p


There are 121 contracted Cartesian AOs and 37 MOs to be calculated.
	Finished 10 % (4 slices in 0.387 s)
	Finished 20 % (2 slices in 0.175 s)
	Finished 30 % (2 slices in 0.171 s)
	Finished 40 % (2 slices in 0.170 s)
	Finished 50 % (2 slices in 0.170 s)
	Finished 60 % (2 slices in 0.171 s)
	Finished 70 % (2 slices in 0.175 s)
	Finished 80 % (2 slices in 0.177 s)
	Finished 90 % (2 slices in 0.195 s)
Converting the output from a vector grid to a regular grid...

Norm of the MOs:
	0.803371	MO 1.A (Occ = 2.00, E = -20.6109 E_h)
	0.985731	MO 2.A (Occ = 2.00, E = -20.5300 E_h)
	0.894531	MO 3.A (Occ = 2.00, E = -11.3291 E_h)
	0.970258	MO 4.A (Occ = 2.00, E = -11.3183 E_h)
	0.905298	MO 5.A (Occ = 2.00, E = -11.2373 E_h)
	0.955304	MO 6.A (Occ = 2.00, E = -11.2175 E_h)
	0.842442	MO 7.A (Occ = 2.00, E = -11.2055 E_h)
	0.991227	MO 8.A (Occ = 2.00, E = -1.4336 E_h)
	1.000991	MO 9.A (Occ = 2.00, E = -1.3760 E_h)
	0.994178	MO 10.A (Occ = 2.00, E = -1.0757 E_h)
	0.997300	MO 11.A (Occ = 2.00, E = -1.0110 E_h)
	0.996443	MO 12.A (Occ = 2.00, E = -0.9634 E_h)
	0.997654	MO 13.A (Occ = 2.00, E = -0.8400 E_h)
	0.998312	MO 14.A (Occ = 2.00, E = -0.7227 E_h)
	0.999157	MO 15.A (Occ = 2.00, E = -0.7075 E_h)
	0.999117	MO 16.A (Occ = 2.00, E = -0.6572 E_h)
	0.999406	MO 17.A (Occ = 2.00, E = -0.6345 E_h)
	1.000175	MO 18.A (Occ = 2.00, E = -0.6241 E_h)
	0.999565	MO 19.A (Occ = 2.00, E = -0.5920 E_h)
	1.000063	MO 20.A (Occ = 2.00, E = -0.5878 E_h)
	1.000238	MO 21.A (Occ = 2.00, E = -0.5547 E_h)
	1.000152	MO 22.A (Occ = 2.00, E = -0.5491 E_h)
	0.999812	MO 23.A (Occ = 2.00, E = -0.5420 E_h)
	1.000317	MO 24.A (Occ = 2.00, E = -0.5189 E_h)
	1.000007	MO 25.A (Occ = 2.00, E = -0.4933 E_h)
	0.998725	MO 26.A (Occ = 2.00, E = -0.3972 E_h)
	1.000100	MO 27.A (Occ = 2.00, E = -0.3405 E_h)
	1.000049	MO 28.A (Occ = 0.00, E = +0.1304 E_h)
	0.998282	MO 29.A (Occ = 0.00, E = +0.2077 E_h)
	0.999985	MO 30.A (Occ = 0.00, E = +0.2450 E_h)
	0.999457	MO 31.A (Occ = 0.00, E = +0.2553 E_h)
	0.999109	MO 32.A (Occ = 0.00, E = +0.2827 E_h)
	0.998564	MO 33.A (Occ = 0.00, E = +0.2895 E_h)
	0.999806	MO 34.A (Occ = 0.00, E = +0.3181 E_h)
	0.999595	MO 35.A (Occ = 0.00, E = +0.3315 E_h)
	0.999530	MO 36.A (Occ = 0.00, E = +0.3325 E_h)
	0.999952	MO 37.A (Occ = 0.00, E = +0.3789 E_h)
[done] wrote 38 entries to mo_cutoffs.json
total density…
JmolData using command options ["-n", "-s", "rho.spt"]
{noDisplay=true, noConsole=true, exit=true, headlessMaxTimeMs=60000, JmolData=true, isDataOnly=true}
Jmol version 16.3.31  2025-07-21 14:08
Operating headless display=null nographicsallowed=true
Executing script from file: rho.spt
jmolapp evalfilearsgs  rho.spt
Executing script: ;exitJmol;
FileManager opening file /data/slurm/159/1594877/rho.spt

FileManager.getAtomSetCollectionFromFile(/data/slurm/159/1594877/Gamess.stdout)
FileManager opening file /data/slurm/159/1594877/Gamess.stdout
The Resolver thinks GamessUS
          *         GAMESS VERSION = 30 JUN 2019 (R1)          *

          1 ELECTRON INTEGRALS
 ...... END OF ONE-ELECTRON INTEGRALS ......
Energy for model 2 = -343.6980260266
121 molecular orbitals read in model 2
Energy for model 2 = -343.6980260266
Molecular dipole for model 2 = {-1.876481, -0.644673, -0.004621}
Energy for model 3 = -343.7013626089
Energy for model 4 = -343.6958892000
Energy for model 5 = -343.7030725942
Energy for model 6 = -343.7008531236
Energy for model 7 = -343.7037126648
Energy for model 8 = -343.7014900453
Energy for model 9 = -343.7040546998
Energy for model 10 = -343.7042218280
Energy for model 11 = -343.7040484400
Energy for model 12 = -343.7043180542
Energy for model 13 = -343.7042421166
Energy for model 14 = -343.7044324215
Energy for model 15 = -343.7044336694
Energy for model 16 = -343.7045043099
Energy for model 17 = -343.7045436923
Energy for model 18 = -343.7045810341
Energy for model 19 = -343.7046072395
Energy for model 20 = -343.7046909406
Energy for model 21 = -343.7046356931
Energy for model 22 = -343.7047323812
Energy for model 23 = -343.7047820988
Energy for model 24 = -343.7048394897
Energy for model 25 = -343.7048809760
Energy for model 26 = -343.7049458323
Energy for model 27 = -343.7049680710
Energy for model 28 = -343.7049558017
Energy for model 29 = -343.7049645397
Energy for model 30 = -343.7050420166
Energy for model 31 = -343.7050499060
Energy for model 32 = -343.7050703154
Energy for model 33 = -343.7050755597
Energy for model 34 = -343.7050853026
Energy for model 35 = -343.7050890451
37 molecular orbitals read in model 36
Energy for model 36 = -343.7050890451
Molecular dipole for model 36 = {-2.438991, -0.703108, 0.125644}
Time for openFile(/data/slurm/159/1594877/Gamess.stdout): 304 ms
reading 540 atoms
ModelSet: haveSymmetry:false haveUnitcells:false haveFractionalCoord:false
36 models in this collection. Use getProperty "modelInfo" or getProperty "auxiliaryInfo" to inspect them.
Default Van der Waals type for model set to Babel
540 atoms created
ModelSet: autobonding; use  autobond=false  to not generate bonds automatically
Time for creating model: 22 ms
36 models
121 molecular orbitals in model 1.2
37 molecular orbitals in model 1.36

MO 27
Molecular orbital #1/121 6-31G(d) RHF OPTIMIZE
15 atoms will be used in the surface calculation
Maximum number of voxels for index=0 exceeded (117) -- set to 80
Maximum number of voxels for index=1 exceeded (90) -- set to 80
generating isosurface data for MO using cutoff 1.8622099E-4
QuantumCalculation:
 origin = [-5.73353, -4.4372797, -3.5035598]
 range (Ang) = [11.79201, 9.106197, 7.2228365]
 steps (Bohr)= [0.2785444, 0.2151016, 0.18957098]
 origin(Bohr)= [-10.834744, -8.3852, -6.6207337]
 steps = [0.2785444, 0.2151016, 0.18957098]
 counts= 80 80 72
calculation type: 6-31G(d) RHF OPTIMIZE OK.
boundbox corners {-3.8936765 -2.6882317 -1.7484671} {4.1795964 2.716792 1.8549045}
rho created  with cutoff=1.8622099E-4; isosurface count: 1
isosurface full data range -1.0 to 1.0 with color scheme spanning -1.0 to 1.0
#created by Jmol Version 16.3.31  2025-07-21 14:08 on Thu Apr 30 06:33:17 UTC 2026
MO
calculation type: 6-31G(d) RHF OPTIMIZE

isosurface resolution for axis 1 set to 6.784255 points/Angstrom; 80 voxels
isosurface resolution for axis 2 set to 8.785226 points/Angstrom; 80 voxels
isosurface resolution for axis 3 set to 9.968383 points/Angstrom; 72 voxels
460800 voxels total

1 id:rho; model:1.2; vertices:11036; polygons:22068; visible:true; dataRange:[-1.0, 1.0, -1.0, 1.0]; title:isosurface rho cutoff 0.013646281766612246 mo density;

<jvxlSurfaceInfo 
  isModelConnected="true" 
  cutoff="1.8622099E-4" 
  isCutoffAbsolute="true" 
  pointsPerAngstrom="6.7842546" 
  nBytesData="40603" 
  isXLowToHigh="false" 
  nSurfaceInts="3782" 
  nBytesUncompressedEdgeData="11035" 
  nBytesUncompressedColorData="25600" 
  precisionColor="true" 
  bicolorMap="true" 
  colorNegative="[xff0000]" 
  colorPositive="[x0000ff]" 
  color="[xffa500]" 
  translucency="0.0" 
  rendering="fill noMesh noDots notFrontOnly frontlit" 
  slabbable="true" 
  xyzMin="{-3.8936765 -2.6882317 -1.7484671}" 
  xyzMax="{4.1795964 2.716792 1.8549045}" 
  approximateCompressionRatio="not calculated" 
  jmolVersion="Jmol 16.3.31  2025-07-21 14:08">
</jvxlSurfaceInfo>


chemcompute.org
{'UTCtimestamp': '2026-04-30T06:33:27.727841', 'cluster': 'jetstream2', 'clusterJobNumber': '1118315', 'status': 'COMPLETE', 'nodeList': 'chemcompute-node-0'}
1118315
